# vtk DataFile Version 3.0
Tree
ASCII
DATASET POLYDATA
POINTS 1582 float
162774 225274 273.8
162774 225274 10273.8
141774 225774 23773.8
134774 213894 30773.8
136874 217458 28673.8
144774 208774 53889.8
141140 212769 42290.6
121774 202010 58773.8
145053 208515 52701.8
153774 199222 67773.8
147669 205727 57223.4
134774 198774 73969.8
123491 203002 53499
105774 193258 58773.8
115341 198520 55925.4
112774 191774 76805.8
153429 199655 67585
163082 189774 86773.8
153670 199352 67717.4
170050 179774 68773.8
107097 193379 59264.6
96773.8 183974 67773.8
136100 199630 73316.2
124774 193886 90773.8
164978 186346 70590.6
174774 177774 84393.8
130890 196988 81346.6
140774 195998 99773.8
168293 180326 69140.6
175978 159774 64773.8
172585 179528 83240.2
178034 173774 102774
98673.4 185277 64375.8
84533.8 169774 64773.8
172560 166127 64174.2
170774 153774 49573.8
97343.8 184365 66754.2
89773.8 177290 87773.8
125515 194988 90274.2
114774 194002 110774
92044.6 179412 81467.8
81569.8 166774 81773.8
174804 161334 65867.8
180046 147774 74773.8
117129 193359 98694.2
104774 190018 102774
176377 157266 68539.8
181986 159774 85773.8
177366 173269 98479.8
183774 159074 109774
115669 193758 106183
129774 195998 117774
159872 192762 83973
158774 192062 103774
178945 150621 72903.4
180002 129774 64773.8
179715 148628 74212.6
183998 145774 88773.8
84952.6 169237 80126.6
79545.8 152774 70773.8
82584.6 167513 81279.8
77773.8 168774 98749.8
90455 177927 85882.2
87773.8 182774 104366
115042 193929 109397
115774 198002 129774
157514 193325 100797
153018 195774 115774
127365 195393 116745
139774 196002 132774
181563 163860 108481
183998 157774 128774
179099 134205 63735.4
177986 121774 51773.8
158396 192441 102881
170774 185974 111774
183111 160510 109386
183998 142774 117774
81899.8 154371 72366.6
81773.8 139662 65773.8
81874.2 166995 81625.4
75549.8 150774 90773.8
108118 191439 102886
97773.8 191814 113774
77447 155640 88029.4
77549.8 153774 106774
87107.4 179823 101085
82329.8 177774 113774
114674 197520 128803
112474 199774 143774
155037 194848 113550
158774 193886 128774
134066 195722 125400
127774 198050 140774
137879 195879 131983
143774 195982 149774
168805 185467 110888
177890 176774 118774
178320 125503 55362.2
185774 128774 37257.8
183487 144529 115090
183186 128774 117774
183845 143301 116969
180774 136226 143774
182248 137255 127938
180774 127774 133170
183215 158321 127320
183986 152774 146774
76119 152234 89950.6
79661.8 134774 83773.8
82366.6 141549 67693.8
85765.8 124774 66773.8
77502.6 154632 98151.4
79773.8 138774 104894
84624.2 178071 111599
86773.8 174774 129958
179845 135309 142121
175774 131774 155970
101114 191603 112623
95773.8 191242 132774
78091 153094 105156
81533.8 146774 116774
141202 196231 146930
136774 197962 163774
112482 197125 139389
105774 187774 158438
111514 194502 149980
114774 195774 160886
84746.2 129806 67049.8
89545.8 122774 53773.8
142797 196077 148693
157774 192054 144774
85441 176818 118575
82161.8 164774 123774
180591 129272 131283
175786 114774 132774
172257 182164 113885
173258 183774 125774
79281 138045 86561.4
83773.8 124466 91773.8
182601 160860 122717
182014 165774 130774
85805.8 125660 67474.6
89765.8 112774 70773.8
177996 121443 132088
177846 111774 119774
87092.2 175326 128679
91617.8 174774 142774
177647 133400 149599
170774 120310 151774
86869.4 174939 129574
86325.8 162774 135774
175492 131633 154183
168006 125774 162774
106763 187911 156538
101774 175774 161182
182577 154829 145309
179834 153774 163774
113679 194209 158593
115106 187774 171774
88808.6 123133 56798.2
93537.8 111774 49773.8
138669 197111 160906
141774 195226 175774
81951.8 140228 66349.8
86521.8 140774 49773.8
176449 116775 132568
170030 112774 141774
90984.2 117907 53567
93773.8 106466 60773.8
177439 112009 120405
176774 105658 112774
83640.6 126495 90086.6
91485.8 112774 89773.8
80271 141796 105157
87705.8 129774 119774
174010 115254 136066
168774 105666 134774
83733.8 125075 91267.8
85773.8 123774 104050
173368 182919 124104
175974 180774 136774
175689 131731 155434
174542 139774 165774
102954 176577 159862
100286 164774 161774
169575 127776 161738
164774 128774 171946
80972.2 149040 115177
84161.8 150774 127774
170697 108477 134106
169418 101774 126774
91257.8 175790 140088
97773.8 180970 150774
168477 126374 162463
161774 117542 160774
90461 114097 70608.6
96773.8 102774 73953.8
113746 188631 166386
109774 174130 173774
178401 153324 161982
174006 151774 175774
127604 198038 139884
121774 200002 150774
173854 137327 164705
170774 140226 173774
85161.8 124164 100215
95549.8 110774 106774
143481 196010 149450
153774 191774 159890
176973 107563 115063
169774 92773.8 110882
175676 152363 170533
173986 164774 178774
175192 181417 132973
169774 187254 142774
90175.8 115354 91273.8
95773.8 106306 94773.8
182768 155877 139912
181218 167774 151774
88278.2 120147 102183
90773.8 119774 113162
165294 129215 170841
159774 131774 182582
87305.8 133061 118890
94773.8 127774 133322
174024 151560 175059
169962 148774 183774
94095.4 107918 59107.8
101450 94773.8 62773.8
174721 102059 112099
174774 96773.8 101954
91509.8 175079 141968
92317.8 165774 147774
171085 95183.8 110057
166774 86773.8 101950
95006.6 108278 92989
104290 97773.8 90773.8
101086 168315 161200
107462 158774 172774
174080 160010 177009
170434 161774 186774
111406 176735 173323
113774 164774 184802
168909 102324 128053
163318 92773.8 121774
95245.8 112093 107319
102774 104774 113966
150715 192498 158672
151774 188774 171326
171456 162415 182995
166534 171774 189774
152856 191991 159525
164774 188050 154774
98106.2 109312 109845
99609.8 110774 119774
179628 167152 149065
176066 176774 155774
101335 95645.8 62130.6
106254 87773.8 63773.8
170657 150169 182431
164774 151774 195970
93765 129746 131910
99705.8 128774 144774
102411 99769.8 90267
108774 91773.8 82881.8
169351 106509 134573
160774 97773.8 133326
89760.2 131801 123837
95681.8 119774 125774
174527 97208.2 102881
173966 90773.8 90773.8
105607 159027 169350
108122 148774 173774
166701 88064.6 103274
157938 79773.8 95773.8
107166 152670 172093
113022 151774 183774
100138 109445 116484
107998 105774 126774
173155 92026.6 95011.4
166774 83637.8 90773.8
97448.2 129143 139885
96773.8 138226 147774
168016 90200.2 105309
155774 82353.8 108774
176322 174876 155223
171026 181774 164774
166523 170087 188643
156966 177774 194774
151715 188585 170482
152774 183842 182774
106291 88779.4 63750.2
116010 79773.8 66773.8
94828.2 122741 126371
101006 117774 133774
97435.4 136873 147209
98365.8 143774 154774
107629 105549 124601
115666 100774 130774
108411 149221 173617
113666 137774 178774
173590 90643.4 91195.8
173774 85993.8 80773.8
112423 152621 182556
117574 153774 192774
114180 80975.4 64686.2
120582 73773.8 62773.8
167517 85256.2 90937.8
159774 79017.8 83773.8
172615 179705 161908
172006 175774 172774
112121 142976 178033
118774 139774 189322
96972.2 137820 147605
92525.8 148774 145774
170948 180833 164091
163774 183774 171970
163044 80747 85189.8
163774 75773.8 75977.8
108209 148908 173727
109774 133774 167970
112580 103387 129659
118310 104774 141774
113857 139031 179031
119774 130774 182886
116359 152250 189932
121774 145774 198022
114740 101558 130439
121774 93537.8 122774
91602.6 130855 127551
91501.8 141774 138774
98838.2 142191 154131
103534 145774 164774
116003 135303 179616
117774 128330 175774
121441 145743 195924
126774 138262 199774
116688 105271 139623
117774 110998 149774
117823 104923 141129
127774 101774 145962
121483 94426.6 123547
128774 87545.8 116774
117187 107905 144292
109774 116222 146774
115388 101009 130673
126386 96773.8 135774
124055 103763 145257
131774 106310 155774
127482 89677 119564
137774 85565.8 119774
129095 88065.8 117357
135774 83497.8 110774
99724.6 128475 143792
106774 125502 152774
98507.4 143299 154581
95773.8 152774 153262
128841 105342 151777
125550 111774 159774
106478 125409 152085
113774 121774 160578
132167 85964.6 114329
128774 83581.8 103774
100654 166403 161510
95657.8 161774 154774
123711 97518.2 133289
134774 91501.8 130774
131319 84073.4 107193
136530 79773.8 95773.8
113119 121601 158195
119774 117002 161774
117777 118381 160700
122774 119774 170886
127030 110317 158652
129774 113774 167182
135089 214740 30879
131774 211026 36773.8
131927 211853 35882.2
126474 209774 41773.8
131820 211274 36506.2
136774 208774 53889.8
126871 209599 41288.6
121662 206774 46773.8
134541 208889 50020.2
130378 204774 59773.8
122938 207569 44140.2
114774 203774 44809.8
130648 204641 59166.6
127774 200774 65965.8
136104 208808 52729
157774 197774 62577.8
116791 204284 45550.2
108774 197930 51773.8
127710 201315 64803
121774 197178 70773.8
145322 203604 59122.2
147774 199222 73773.8
155749 197454 62367
164774 189970 65773.8
110890 192968 67439
108218 190774 69773.8
147903 199140 72465
149774 196002 80773.8
147813 199197 73381
141774 198014 77773.8
108885 191299 69749.8
104774 187786 76773.8
113224 192513 73333.4
121774 193386 80773.8
162872 189973 86577.4
167774 185434 90773.8
112583 191630 76150.6
109774 188054 84773.8
167075 182715 68872.6
169774 178898 62773.8
104689 187848 75646.2
99773.8 183994 80773.8
124996 194216 90623.8
118418 191774 87773.8
169523 179939 68883.8
175814 171774 73773.8
173466 174072 71475.4
174774 167774 69581.8
120596 192583 89699.4
113774 190054 92773.8
173943 177829 83766.2
178058 170774 84773.8
109553 189137 83974.2
105774 187834 91773.8
137842 196235 97311.4
138774 195998 106774
175626 160242 65102.2
175774 151774 62469.8
175109 171782 73065.4
177986 164774 75773.8
135756 196461 92521.8
125774 194006 104774
137607 196081 103882
132774 195998 109774
156573 193904 105643
148774 195998 107774
138646 196027 106742
140774 195998 113774
171656 153848 51463.8
171982 147774 46773.8
87086.2 171255 65518.2
81529.8 161774 67773.8
81763 169753 88971
83773.8 174434 93773.8
105999 187825 88672.6
95773.8 183774 93577.8
180199 158971 84459
182014 159774 100774
156533 193461 91315
149970 194774 95773.8
140093 196007 113483
140774 195998 120774
179947 148030 74605.4
[...]
CELL_DATA 1581
SCALARS radius float
LOOKUP_TABLE default
100
100
100
100
92.9635
92.9635
89.6332
89.6332
86.4222
86.4222
83.3262
83.3262
86.4222
86.4222
83.3262
83.3262
80.3411
80.3411
77.463
77.463
80.3411
80.3411
80.3411
80.3411
74.6879
74.6879
77.463
77.463
69.4326
69.4326
72.0123
72.0123
77.463
77.463
64.547
64.547
74.6879
74.6879
74.6879
74.6879
72.0123
72.0123
62.2346
62.2346
72.0123
72.0123
60.0051
60.0051
69.4326
69.4326
69.4326
69.4326
74.6879
74.6879
57.8555
57.8555
55.7829
55.7829
69.4326
69.4326
66.9452
66.9452
69.4326
69.4326
66.9452
66.9452
69.4326
69.4326
66.9452
66.9452
66.9452
66.9452
53.7845
53.7845
66.9452
66.9452
64.547
64.547
66.9452
66.9452
64.547
64.547
69.4326
69.4326
62.2346
62.2346
66.9452
66.9452
62.2346
62.2346
62.2346
62.2346
64.547
64.547
62.2346
62.2346
62.2346
62.2346
51.8578
51.8578
62.2346
62.2346
60.0051
60.0051
57.8555
57.8555
62.2346
62.2346
60.0051
60.0051
64.547
64.547
60.0051
60.0051
64.547
64.547
53.7845
53.7845
62.2346
62.2346
57.8555
57.8555
57.8555
57.8555
60.0051
60.0051
57.8555
57.8555
62.2346
62.2346
55.7829
55.7829
62.2346
62.2346
55.7829
55.7829
57.8555
57.8555
57.8555
57.8555
64.547
64.547
60.0051
60.0051
53.7845
53.7845
60.0051
60.0051
51.8578
51.8578
57.8555
57.8555
50
50
53.7845
53.7845
57.8555
57.8555
53.7845
53.7845
60.0051
60.0051
53.7845
53.7845
62.2346
62.2346
51.8578
51.8578
57.8555
57.8555
50
50
55.7829
55.7829
55.7829
55.7829
50
50
53.7845
53.7845
53.7845
53.7845
48.2088
48.2088
51.8578
51.8578
48.2088
48.2088
53.7845
53.7845
48.2088
48.2088
57.8555
57.8555
46.4818
46.4818
55.7829
55.7829
51.8578
51.8578
50
50
60.0051
60.0051
43.2111
43.2111
51.8578
51.8578
53.7845
53.7845
48.2088
48.2088
48.2088
48.2088
50
50
50
50
60.0051
60.0051
50
50
46.4818
46.4818
53.7845
53.7845
46.4818
46.4818
55.7829
55.7829
46.4818
46.4818
55.7829
55.7829
44.8166
44.8166
48.2088
48.2088
50
50
46.4818
46.4818
46.4818
46.4818
46.4818
46.4818
48.2088
48.2088
51.8578
51.8578
44.8166
44.8166
50
50
46.4818
46.4818
55.7829
55.7829
50
50
44.8166
44.8166
48.2088
48.2088
44.8166
44.8166
46.4818
46.4818
51.8578
51.8578
44.8166
44.8166
46.4818
46.4818
41.6631
41.6631
44.8166
44.8166
44.8166
44.8166
41.6631
41.6631
46.4818
46.4818
43.2111
43.2111
51.8578
51.8578
41.6631
41.6631
50
50
46.4818
46.4818
50
50
44.8166
44.8166
43.2111
43.2111
43.2111
43.2111
40.1706
40.1706
43.2111
43.2111
41.6631
41.6631
40.1706
40.1706
50
50
41.6631
41.6631
43.2111
43.2111
48.2088
48.2088
38.7315
38.7315
41.6631
41.6631
41.6631
41.6631
40.1706
40.1706
40.1706
40.1706
40.1706
40.1706
50
50
41.6631
41.6631
38.7315
38.7315
38.7315
38.7315
38.7315
38.7315
37.344
37.344
38.7315
38.7315
37.344
37.344
38.7315
38.7315
36.0062
36.0062
37.344
37.344
36.0062
36.0062
44.8166
44.8166
40.1706
40.1706
33.4726
33.4726
43.2111
43.2111
34.7163
34.7163
48.2088
48.2088
36.0062
36.0062
33.4726
33.4726
40.1706
40.1706
38.7315
38.7315
32.2735
32.2735
89.6332
89.6332
86.4222
86.4222
83.3262
83.3262
80.3411
80.3411
77.463
77.463
77.463
77.463
69.4326
69.4326
74.6879
74.6879
74.6879
74.6879
66.9452
66.9452
69.4326
69.4326
64.547
64.547
80.3411
80.3411
64.547
64.547
62.2346
62.2346
77.463
77.463
77.463
77.463
72.0123
72.0123
74.6879
74.6879
72.0123
72.0123
72.0123
72.0123
72.0123
72.0123
66.9452
66.9452
64.547
64.547
69.4326
69.4326
69.4326
69.4326
72.0123
72.0123
69.4326
69.4326
60.0051
60.0051
62.2346
62.2346
72.0123
72.0123
66.9452
66.9452
66.9452
66.9452
64.547
64.547
62.2346
62.2346
69.4326
69.4326
62.2346
62.2346
69.4326
69.4326
53.7845
53.7845
72.0123
72.0123
62.2346
62.2346
53.7845
53.7845
64.547
64.547
62.2346
62.2346
62.2346
62.2346
64.547
64.547
50
50
66.9452
66.9452
60.0051
60.0051
60.0051
60.0051
62.2346
62.2346
51.8578
51.8578
57.8555
57.8555
62.2346
62.2346
50
50
48.2088
48.2088
64.547
64.547
57.8555
57.8555
60.0051
60.0051
57.8555
57.8555
60.0051
60.0051
60.0051
60.0051
60.0051
60.0051
50
50
60.0051
60.0051
53.7845
53.7845
53.7845
53.7845
48.2088
48.2088
51.8578
51.8578
62.2346
62.2346
57.8555
57.8555
53.7845
53.7845
57.8555
57.8555
60.0051
60.0051
55.7829
55.7829
57.8555
57.8555
60.0051
60.0051
55.7829
55.7829
57.8555
57.8555
51.8578
51.8578
55.7829
55.7829
53.7845
53.7845
53.7845
53.7845
57.8555
57.8555
51.8578
51.8578
51.8578
51.8578
55.7829
55.7829
53.7845
53.7845
57.8555
57.8555
51.8578
51.8578
53.7845
53.7845
57.8555
57.8555
51.8578
51.8578
50
50
57.8555
57.8555
48.2088
48.2088
53.7845
53.7845
55.7829
55.7829
55.7829
55.7829
55.7829
55.7829
51.8578
51.8578
50
50
53.7845
53.7845
53.7845
53.7845
51.8578
51.8578
51.8578
51.8578
50
50
53.7845
53.7845
53.7845
53.7845
51.8578
51.8578
51.8578
51.8578
50
50
62.2346
62.2346
51.8578
51.8578
48.2088
48.2088
53.7845
53.7845
46.4818
46.4818
55.7829
55.7829
44.8166
44.8166
48.2088
48.2088
44.8166
44.8166
48.2088
48.2088
44.8166
44.8166
50
50
46.4818
46.4818
48.2088
48.2088
48.2088
48.2088
57.8555
57.8555
53.7845
53.7845
44.8166
44.8166
48.2088
48.2088
41.6631
41.6631
53.7845
53.7845
46.4818
46.4818
43.2111
43.2111
57.8555
57.8555
43.2111
43.2111
48.2088
48.2088
43.2111
43.2111
48.2088
48.2088
46.4818
46.4818
41.6631
41.6631
48.2088
48.2088
41.6631
41.6631
44.8166
44.8166
48.2088
48.2088
43.2111
43.2111
55.7829
55.7829
44.8166
44.8166
40.1706
40.1706
40.1706
40.1706
51.8578
51.8578
41.6631
41.6631
40.1706
40.1706
44.8166
44.8166
41.6631
41.6631
46.4818
46.4818
41.6631
41.6631
38.7315
38.7315
53.7845
53.7845
37.344
37.344
55.7829
55.7829
48.2088
48.2088
43.2111
43.2111
46.4818
46.4818
44.8166
44.8166
38.7315
38.7315
37.344
37.344
40.1706
40.1706
37.344
37.344
40.1706
40.1706
37.344
37.344
40.1706
40.1706
37.344
37.344
37.344
37.344
36.0062
36.0062
37.344
37.344
48.2088
48.2088
50
50
34.7163
34.7163
34.7163
34.7163
36.0062
36.0062
50
50
36.0062
36.0062
33.4726
33.4726
34.7163
34.7163
46.4818
46.4818
41.6631
41.6631
32.2735
32.2735
41.6631
41.6631
37.344
37.344
36.0062
36.0062
86.4222
86.4222
83.3262
83.3262
77.463
77.463
72.0123
72.0123
74.6879
74.6879
83.3262
83.3262
72.0123
72.0123
64.547
64.547
77.463
77.463
77.463
77.463
62.2346
62.2346
74.6879
74.6879
60.0051
60.0051
69.4326
69.4326
77.463
77.463
74.6879
74.6879
60.0051
60.0051
57.8555
57.8555
74.6879
74.6879
69.4326
69.4326
74.6879
74.6879
66.9452
66.9452
66.9452
66.9452
66.9452
66.9452
72.0123
72.0123
64.547
64.547
62.2346
62.2346
64.547
64.547
69.4326
69.4326
66.9452
66.9452
66.9452
66.9452
66.9452
66.9452
66.9452
66.9452
66.9452
66.9452
64.547
64.547
57.8555
57.8555
64.547
64.547
55.7829
55.7829
55.7829
55.7829
60.0051
60.0051
64.547
64.547
64.547
64.547
64.547
64.547
64.547
64.547
55.7829
55.7829
62.2346
62.2346
60.0051
60.0051
62.2346
62.2346
64.547
64.547
62.2346
62.2346
57.8555
57.8555
60.0051
60.0051
50
50
60.0051
60.0051
60.0051
60.0051
60.0051
60.0051
57.8555
57.8555
62.2346
62.2346
50
50
48.2088
48.2088
57.8555
57.8555
50
50
55.7829
55.7829
60.0051
60.0051
57.8555
57.8555
57.8555
57.8555
51.8578
51.8578
55.7829
55.7829
55.7829
55.7829
57.8555
57.8555
53.7845
53.7845
55.7829
55.7829
57.8555
57.8555
50
50
55.7829
55.7829
60.0051
60.0051
55.7829
55.7829
55.7829
55.7829
55.7829
55.7829
53.7845
53.7845
57.8555
57.8555
48.2088
48.2088
51.8578
51.8578
50
50
55.7829
55.7829
50
50
51.8578
51.8578
53.7845
53.7845
50
50
55.7829
55.7829
57.8555
57.8555
53.7845
53.7845
48.2088
48.2088
51.8578
51.8578
55.7829
55.7829
51.8578
51.8578
50
50
51.8578
51.8578
44.8166
44.8166
48.2088
48.2088
53.7845
53.7845
51.8578
51.8578
53.7845
53.7845
50
50
44.8166
44.8166
48.2088
48.2088
50
50
51.8578
51.8578
43.2111
43.2111
51.8578
51.8578
46.4818
46.4818
50
50
46.4818
46.4818
50
50
43.2111
43.2111
41.6631
41.6631
48.2088
48.2088
46.4818
46.4818
46.4818
46.4818
44.8166
44.8166
48.2088
48.2088
43.2111
43.2111
48.2088
48.2088
41.6631
41.6631
43.2111
43.2111
44.8166
44.8166
46.4818
46.4818
46.4818
46.4818
40.1706
40.1706
55.7829
55.7829
46.4818
46.4818
43.2111
43.2111
46.4818
46.4818
48.2088
48.2088
46.4818
46.4818
51.8578
51.8578
44.8166
44.8166
41.6631
41.6631
46.4818
46.4818
44.8166
44.8166
43.2111
43.2111
50
50
43.2111
43.2111
40.1706
40.1706
43.2111
43.2111
43.2111
43.2111
46.4818
46.4818
40.1706
40.1706
43.2111
43.2111
44.8166
44.8166
50
50
38.7315
38.7315
38.7315
38.7315
41.6631
41.6631
41.6631
41.6631
41.6631
41.6631
40.1706
40.1706
38.7315
38.7315
46.4818
46.4818
40.1706
40.1706
40.1706
40.1706
40.1706
40.1706
41.6631
41.6631
38.7315
38.7315
38.7315
38.7315
38.7315
38.7315
37.344
37.344
38.7315
38.7315
38.7315
38.7315
46.4818
46.4818
38.7315
38.7315
40.1706
40.1706
37.344
37.344
34.7163
34.7163
48.2088
48.2088
34.7163
34.7163
34.7163
34.7163
34.7163
34.7163
36.0062
36.0062
44.8166
44.8166
32.2735
32.2735
38.7315
38.7315
31.1173
31.1173
37.344
37.344
34.7163
34.7163
96.4176
96.4176
92.9635
92.9635
80.3411
80.3411
72.0123
72.0123
69.4326
69.4326
74.6879
74.6879
66.9452
66.9452
80.3411
80.3411
72.0123
72.0123
69.4326
69.4326
66.9452
66.9452
62.2346
62.2346
55.7829
55.7829
72.0123
72.0123
69.4326
69.4326
62.2346
62.2346
66.9452
66.9452
72.0123
72.0123
64.547
64.547
62.2346
62.2346
69.4326
69.4326
69.4326
69.4326
66.9452
66.9452
72.0123
72.0123
74.6879
74.6879
60.0051
60.0051
66.9452
66.9452
72.0123
72.0123
64.547
64.547
69.4326
69.4326
69.4326
69.4326
69.4326
69.4326
62.2346
62.2346
60.0051
60.0051
57.8555
57.8555
57.8555
57.8555
48.2088
48.2088
66.9452
66.9452
64.547
64.547
64.547
64.547
51.8578
51.8578
57.8555
57.8555
53.7845
53.7845
64.547
64.547
60.0051
60.0051
57.8555
57.8555
55.7829
55.7829
60.0051
60.0051
62.2346
62.2346
66.9452
66.9452
64.547
64.547
55.7829
55.7829
55.7829
55.7829
57.8555
57.8555
51.8578
51.8578
46.4818
46.4818
64.547
64.547
48.2088
48.2088
48.2088
48.2088
55.7829
55.7829
64.547
64.547
55.7829
55.7829
55.7829
55.7829
51.8578
51.8578
55.7829
55.7829
55.7829
55.7829
53.7845
53.7845
46.4818
46.4818
51.8578
51.8578
53.7845
53.7845
53.7845
53.7845
53.7845
53.7845
53.7845
53.7845
53.7845
53.7845
60.0051
60.0051
51.8578
51.8578
48.2088
48.2088
51.8578
51.8578
55.7829
55.7829
53.7845
53.7845
57.8555
57.8555
51.8578
51.8578
60.0051
60.0051
53.7845
53.7845
46.4818
46.4818
60.0051
60.0051
100
96.4176
96.4176
89.6332
89.6332
86.4222
86.4222
92.9635
92.9635
83.3262
83.3262
86.4222
86.4222
80.3411
80.3411
83.3262
83.3262
77.463
77.463
77.463
77.463
80.3411
80.3411
74.6879
74.6879
74.6879
74.6879
77.463
77.463
72.0123
72.0123
74.6879
74.6879
72.0123
72.0123
69.4326
69.4326
72.0123
72.0123
69.4326
69.4326
69.4326
69.4326
66.9452
66.9452
72.0123
72.0123
66.9452
66.9452
69.4326
69.4326
64.547
64.547
66.9452
66.9452
64.547
64.547
74.6879
74.6879
62.2346
62.2346
62.2346
62.2346
64.547
64.547
60.0051
60.0051
62.2346
62.2346
60.0051
60.0051
64.547
64.547
62.2346
62.2346
72.0123
72.0123
69.4326
69.4326
57.8555
57.8555
57.8555
57.8555
57.8555
57.8555
55.7829
55.7829
62.2346
62.2346
60.0051
60.0051
60.0051
60.0051
57.8555
57.8555
55.7829
55.7829
55.7829
55.7829
55.7829
55.7829
53.7845
53.7845
53.7845
53.7845
53.7845
53.7845
51.8578
51.8578
51.8578
51.8578
53.7845
53.7845
51.8578
51.8578
50
50
50
50
48.2088
48.2088
48.2088
48.2088
46.4818
46.4818
46.4818
46.4818
50
50
48.2088
48.2088
50
50
44.8166
44.8166
48.2088
48.2088
46.4818
46.4818
44.8166
44.8166
43.2111
43.2111
44.8166
44.8166
46.4818
46.4818
44.8166
44.8166
43.2111
43.2111
41.6631
41.6631
40.1706
40.1706
44.8166
44.8166
44.8166
44.8166
43.2111
43.2111
43.2111
43.2111
38.7315
38.7315
51.8578
51.8578
50
50
43.2111
43.2111
37.344
37.344
41.6631
41.6631
40.1706
40.1706
41.6631
41.6631
38.7315
38.7315
37.344
37.344
36.0062
36.0062
36.0062
36.0062
40.1706
40.1706
34.7163
34.7163
34.7163
34.7163
34.7163
34.7163
33.4726
33.4726
33.4726
33.4726
38.7315
38.7315
32.2735
32.2735
31.1173
31.1173
32.2735
32.2735
32.2735
32.2735
37.344
37.344
31.1173
31.1173
31.1173
31.1173
92.9635
92.9635
89.6332
89.6332
86.4222
86.4222
83.3262
83.3262
80.3411
80.3411
77.463
77.463
83.3262
83.3262
74.6879
74.6879
83.3262
83.3262
80.3411
80.3411
77.463
77.463
80.3411
80.3411
77.463
77.463
72.0123
72.0123
74.6879
74.6879
72.0123
72.0123
74.6879
74.6879
69.4326
69.4326
69.4326
69.4326
69.4326
69.4326
66.9452
66.9452
64.547
64.547
62.2346
62.2346
69.4326
69.4326
66.9452
66.9452
66.9452
66.9452
66.9452
66.9452
64.547
64.547
69.4326
69.4326
64.547
64.547
64.547
64.547
62.2346
62.2346
