# vtk DataFile Version 3.0
Tree
ASCII
DATASET POLYDATA
POINTS 1582 float
162774 225274 273.8
162774 225274 10273.8
141774 225774 23773.8
135122 214198 30497.8
137117 217671 28480.6
133774 207774 55941.8
134777 210743 47703.4
152774 203774 58881.8
135479 212821 41936.6
111774 199962 50773.8
125123 206214 48804.6
120774 197774 68901.8
149100 203975 58368.6
161242 191774 76773.8
123976 200477 63809.8
132774 195986 82773.8
115186 200746 51904.6
102774 189934 63773.8
120751 197816 68657.8
110774 189774 82797.8
157775 194517 67879.4
173774 173890 69773.8
161429 191553 75469.4
173226 181774 94773.8
104445 191179 60569
90773.8 177974 63773.8
99250.2 186161 61787
96773.8 181978 75773.8
113767 192187 78555.8
118774 193774 100654
119421 193403 91868.6
138774 195998 105774
169594 176503 68115
174774 152774 61577.8
170968 165564 61130.6
170062 157774 48773.8
172110 161727 61264.6
178774 155954 74773.8
171692 180983 93076.2
181230 167774 110774
92340.6 178867 64618.2
80773.8 163886 74773.8
174556 154087 62475.8
179878 139774 68773.8
95820.6 182433 73479
83773.8 174774 94349.8
118720 193955 100116
116774 195998 118774
136209 194909 101739
157774 193230 103774
92561.4 180693 82320.6
95773.8 184774 96381.8
95889 185152 95067
100774 191954 111774
138004 195671 104563
146774 195998 121774
178009 143103 65589.4
179834 127774 61773.8
179317 140773 67818.6
183998 140774 85773.8
169272 182693 86451.4
180062 166774 89773.8
178953 167801 107351
183998 152774 118774
83723.4 165815 71611.8
79533.8 148774 71773.8
85166.6 174692 91885.8
76773.8 162774 99949.8
81125.8 155249 71712.2
81773.8 147774 60505.8
81658.6 164465 73825.4
75773.8 154774 86653.8
84191.4 174749 93610.6
84773.8 181774 108442
116277 195910 117843
112774 198018 136774
141463 196052 116193
135774 197386 134774
172766 181537 94264.6
173218 183774 110774
178994 134825 63529
175998 128774 44773.8
139305 196709 129391
146774 195886 142774
182636 154591 115829
183998 136774 119774
183480 143544 118275
183946 138774 133774
183589 153319 117891
183998 156774 138774
80011.4 150717 71755.4
77773.8 141610 83773.8
79677 149357 71768.2
83605.8 131774 66773.8
78151.8 155635 85662.2
77541.8 146774 97773.8
79319.8 164592 99183
78773.8 152774 110026
84896.6 179737 106610
86773.8 180774 123958
146473 195294 120328
163970 190774 131774
112775 196579 134916
108774 195290 151774
143936 196199 137688
134774 198002 151774
183537 137603 119669
181998 125774 122774
114105 196325 128428
97593.8 192774 133774
183096 139642 132046
178774 135774 151322
183351 139381 132564
178094 124774 136774
171604 184409 109285
169774 187258 121774
86210.6 180463 118753
83673.8 169774 126774
183307 154268 136291
181998 151774 153774
137807 197483 149514
138774 197774 162798
109214 193598 148245
105774 187774 158438
83374.6 135121 66582.2
89529.8 121774 55773.8
180547 167782 109747
181978 167774 125774
181707 127039 121500
179202 116774 121774
79335.8 153865 107343
81733.8 137774 111774
179953 119853 121692
175786 114774 132774
84840.6 174691 123084
90349.8 174774 139774
179329 129607 137008
173774 122774 148970
79473 142300 80547.4
84317.8 123774 90773.8
107081 189987 154565
114282 191774 165774
83536.2 132778 66716.2
89489.8 114774 72773.8
175298 126005 146601
170774 128774 161954
106166 188438 157276
99609.8 177774 156774
82145 148392 62449
85673.8 137774 52773.8
179427 117698 121749
177774 108498 115774
84609.4 170488 126475
86773.8 159774 135970
179251 137262 148935
176774 137774 159318
112811 192020 161711
121774 198002 164774
181794 153972 151341
179774 156774 165066
170756 186001 119942
173258 183774 132774
89178.2 121897 56967.8
93549.8 110774 50773.8
139227 196942 161397
141774 195218 176774
90489.8 118560 55109.8
93657.8 106774 62773.8
146341 195719 142394
150774 193910 152774
84774.6 126622 87501.4
91485.8 112774 90773.8
113840 191848 164555
113774 181774 175218
174231 123743 148259
167774 111774 144578
84455 124628 89792.2
86773.8 122774 103954
102001 179826 157649
100298 165774 161774
177036 116298 129449
168450 103774 131774
81541.4 143125 111763
86353.8 135774 122774
177410 109621 117247
171986 98773.8 114774
90317 115795 72277
95569.8 104774 75773.8
135684 197846 151096
120774 200002 152774
173217 127279 153663
162774 117774 160890
85790.2 136219 119941
91609.8 124774 123774
170424 127774 160044
160774 126226 173774
89868.6 176011 136248
97537.8 183774 146774
171026 107531 131077
169950 100774 123774
86756.6 122101 98119
93773.8 112270 105774
113198 183480 171424
109494 168774 174774
170669 128474 161381
169774 135578 171774
90443.8 174619 139095
92773.8 169162 147774
183791 156022 138029
181230 169774 143774
179479 155457 163283
173774 152774 178798
172123 184795 130709
169974 186774 142774
175942 153793 172902
173774 163774 181018
149635 193782 152252
151774 191386 162774
91780.2 113577 90548.6
98289.8 103774 92773.8
175783 106367 116505
176774 101774 105170
93657 108276 60424.6
99761.8 94773.8 60773.8
172865 100311 114147
168774 90773.8 105970
89863.8 128207 122624
96773.8 125774 135326
163239 127492 171467
159774 132282 183774
109775 170400 172862
106266 157774 171774
169341 135039 171528
167206 141774 182774
109578 169261 174200
113774 165774 183990
172249 99235 114586
162774 91453.8 118774
93768.2 113597 105788
101774 105774 114574
150432 193871 152617
162774 188774 155954
173833 153411 178287
168774 154774 189890
150809 191544 161927
150774 189214 171774
173379 161919 180269
166774 169774 191322
180594 167893 143615
176034 178774 149774
97831.8 105161 91753
107574 94773.8 89773.8
168647 104409 131334
161950 96773.8 130774
99447 97414.6 62062.2
105614 88773.8 65773.8
171185 95015 107919
173430 91773.8 94773.8
99372.2 108121 111938
106774 98773.8 107970
171173 92817.4 102949
166774 85569.8 97773.8
95188.2 127271 133296
98773.8 131774 145326
101053 106478 113783
104774 107774 125134
107599 162572 172187
111774 152742 182774
91722.2 125069 123559
97773.8 116334 125774
176669 176256 149624
171774 181774 160578
104651 97889.8 90367.4
107122 91773.8 77773.8
167266 88109.4 100419
156774 81449.8 100774
150367 189249 171491
149774 187246 179774
105849 89859 64866.2
113502 82773.8 66773.8
166977 169220 188191
159950 176774 192774
172589 91355.4 95911.4
171774 86773.8 87133.8
110925 154000 179915
113762 142774 182774
93298.6 111196 51944.6
97657.8 98773.8 50773.8
166297 86396.6 98214.6
161294 80773.8 89773.8
97665.8 131958 143017
97773.8 141774 152034
174417 178794 154663
176002 172774 166774
112067 153209 182207
117446 150774 190774
112003 149734 181002
109690 141774 173774
105119 106864 123419
114414 103774 134774
171507 181450 159708
164774 185210 165774
96298.2 126223 134717
103006 117774 137774
172759 88489.4 88895.8
176774 87573.8 77773.8
112567 83426.6 65838.6
121582 73773.8 63773.8
172069 87288.6 87662.2
167774 79541.8 78773.8
110144 104510 128033
117774 97773.8 127990
168949 182879 162013
168774 179774 173134
97698.2 134903 145722
91617.8 146774 142774
109626 143643 174262
104774 139774 163322
113234 144862 182242
121738 136774 192774
109671 142335 173920
112358 130774 169774
116937 150153 190062
121774 145774 198022
117146 141141 187087
121142 129774 183774
167841 79565.8 79098.2
163106 70773.8 69773.8
168840 180954 168908
160774 183774 174970
112908 104790 133439
116774 108774 145946
115307 99690.2 126718
123586 90773.8 118774
114377 106304 138192
124578 101774 142774
95874.2 138464 144837
90773.8 139774 135970
106459 158333 171359
104314 149774 167774
86189.4 161407 133115
86773.8 150774 133890
123229 92571 121036
131774 87001.8 117774
116055 108033 143619
109994 117774 148774
120919 104282 142370
129774 105774 153962
93129.4 145265 144098
91773.8 156774 147074
130027 88015 117675
135774 83497.8 110774
111706 115984 148782
110534 123774 158774
98441.4 131829 144633
103774 127774 151970
121159 95240.6 124301
132774 89773.8 126902
100393 168168 160100
97693.8 155774 157774
134050 84853 112844
130530 81773.8 99773.8
102696 129289 151081
106362 130774 159774
129289 91413.8 126121
133774 93773.8 135182
114402 111054 145581
118774 113774 156890
118215 114187 156039
121774 118358 166774
119567 115772 160118
128222 112774 163774
121440 131171 183488
126774 121774 178966
135071 214827 30390.6
129774 210006 34773.8
137887 215459 33834.6
145774 211230 40773.8
130224 211026 34290.2
122774 207994 39773.8
124002 208181 39857.8
120774 206062 44773.8
134605 208323 54393.8
137774 205970 60773.8
121064 206343 43218.2
114774 202774 45953.8
136823 206676 58859.8
132774 202098 64773.8
137913 206079 60487.4
142774 203774 66793.8
142581 203836 65665.8
150774 199774 70897.8
116661 203845 45133
112774 195774 64965.8
148712 200019 70868.6
152774 196006 76773.8
112913 195685 64648.6
111774 193022 70773.8
146873 201164 69307.8
144774 198010 77773.8
163411 187601 69866.6
167774 185258 74773.8
161298 191708 76382.6
163774 189226 86773.8
111284 193434 68979.8
104774 187786 76773.8
127283 196448 78114.2
125774 193986 84773.8
144885 198456 77584.6
142774 195998 86773.8
142504 196647 84992.6
136774 195894 91773.8
167329 185123 74009
173014 179774 78773.8
105776 188611 76583.4
102774 185890 82773.8
138601 196112 90503
138774 195998 95773.8
172620 173948 69473
175982 167774 71773.8
111022 190161 82489
106774 187890 88773.8
175204 174344 85604.6
178002 170774 82773.8
95871.8 182647 70643.4
89573.8 176774 75773.8
109980 189527 85765.8
111774 190010 93773.8
177303 171043 83764.6
180002 163774 82773.8
90805.4 177869 75812.2
86773.8 173974 81773.8
118758 193828 100492
125774 194006 104774
110163 189775 90890.2
105774 189814 97773.8
124719 194237 104318
131774 195998 109774
176785 155074 68935.4
179910 148774 72773.8
170576 158477 52110.2
171986 147774 48773.8
178605 169045 88523
181998 162774 103774
178818 155614 74398.6
181774 155998 81773.8
80606.6 161816 77376.2
79613.8 164774 84773.8
92929.4 181867 89807.8
91773.8 181258 93773.8
129657 195469 108137
128774 195998 116774
100435 190232 106956
107774 192774 109582
146023 194251 99997.4
152774 193998 93773.8
154081 193397 101612
160774 191870 97773.8
142693 196193 86239.4
[...]
CELL_DATA 1581
SCALARS radius float
LOOKUP_TABLE default
100
100
100
100
96.4176
96.4176
83.3262
83.3262
86.4222
86.4222
83.3262
83.3262
80.3411
80.3411
80.3411
80.3411
80.3411
80.3411
77.463
77.463
77.463
77.463
74.6879
74.6879
77.463
77.463
74.6879
74.6879
74.6879
74.6879
72.0123
72.0123
66.9452
66.9452
64.547
64.547
62.2346
62.2346
69.4326
69.4326
72.0123
72.0123
60.0051
60.0051
69.4326
69.4326
69.4326
69.4326
69.4326
69.4326
66.9452
66.9452
62.2346
62.2346
66.9452
66.9452
57.8555
57.8555
55.7829
55.7829
72.0123
72.0123
66.9452
66.9452
69.4326
69.4326
64.547
64.547
66.9452
66.9452
66.9452
66.9452
62.2346
62.2346
66.9452
66.9452
64.547
64.547
66.9452
66.9452
55.7829
55.7829
62.2346
62.2346
64.547
64.547
62.2346
62.2346
62.2346
62.2346
64.547
64.547
62.2346
62.2346
60.0051
60.0051
62.2346
62.2346
57.8555
57.8555
60.0051
60.0051
62.2346
62.2346
60.0051
60.0051
60.0051
60.0051
64.547
64.547
57.8555
57.8555
53.7845
53.7845
64.547
64.547
55.7829
55.7829
57.8555
57.8555
57.8555
57.8555
57.8555
57.8555
60.0051
60.0051
64.547
64.547
57.8555
57.8555
60.0051
60.0051
53.7845
53.7845
53.7845
53.7845
51.8578
51.8578
62.2346
62.2346
55.7829
55.7829
57.8555
57.8555
50
50
53.7845
53.7845
62.2346
62.2346
51.8578
51.8578
51.8578
51.8578
51.8578
51.8578
53.7845
53.7845
55.7829
55.7829
62.2346
62.2346
55.7829
55.7829
51.8578
51.8578
53.7845
53.7845
57.8555
57.8555
60.0051
60.0051
51.8578
51.8578
48.2088
48.2088
57.8555
57.8555
50
50
51.8578
51.8578
57.8555
57.8555
50
50
51.8578
51.8578
55.7829
55.7829
48.2088
48.2088
55.7829
55.7829
46.4818
46.4818
50
50
50
50
55.7829
55.7829
50
50
44.8166
44.8166
48.2088
48.2088
55.7829
55.7829
51.8578
51.8578
60.0051
60.0051
48.2088
48.2088
53.7845
53.7845
53.7845
53.7845
48.2088
48.2088
51.8578
51.8578
46.4818
46.4818
53.7845
53.7845
41.6631
41.6631
48.2088
48.2088
43.2111
43.2111
46.4818
46.4818
44.8166
44.8166
53.7845
53.7845
51.8578
51.8578
46.4818
46.4818
48.2088
48.2088
46.4818
46.4818
50
50
50
50
48.2088
48.2088
48.2088
48.2088
44.8166
44.8166
51.8578
51.8578
43.2111
43.2111
51.8578
51.8578
50
50
46.4818
46.4818
51.8578
51.8578
48.2088
48.2088
48.2088
48.2088
41.6631
41.6631
46.4818
46.4818
44.8166
44.8166
43.2111
43.2111
41.6631
41.6631
44.8166
44.8166
51.8578
51.8578
40.1706
40.1706
50
50
46.4818
46.4818
43.2111
43.2111
43.2111
43.2111
46.4818
46.4818
44.8166
44.8166
50
50
40.1706
40.1706
41.6631
41.6631
37.344
37.344
44.8166
44.8166
43.2111
43.2111
48.2088
48.2088
41.6631
41.6631
41.6631
41.6631
40.1706
40.1706
41.6631
41.6631
38.7315
38.7315
36.0062
36.0062
41.6631
41.6631
43.2111
43.2111
41.6631
41.6631
41.6631
41.6631
46.4818
46.4818
43.2111
43.2111
48.2088
48.2088
38.7315
38.7315
40.1706
40.1706
40.1706
40.1706
44.8166
44.8166
37.344
37.344
37.344
37.344
48.2088
48.2088
40.1706
40.1706
44.8166
44.8166
36.0062
36.0062
44.8166
44.8166
38.7315
38.7315
38.7315
38.7315
37.344
37.344
36.0062
36.0062
36.0062
36.0062
92.9635
92.9635
89.6332
89.6332
86.4222
86.4222
83.3262
83.3262
77.463
77.463
80.3411
80.3411
72.0123
72.0123
69.4326
69.4326
64.547
64.547
77.463
77.463
60.0051
60.0051
69.4326
69.4326
62.2346
62.2346
69.4326
69.4326
72.0123
72.0123
66.9452
66.9452
74.6879
74.6879
57.8555
57.8555
53.7845
53.7845
66.9452
66.9452
64.547
64.547
51.8578
51.8578
64.547
64.547
72.0123
72.0123
66.9452
66.9452
72.0123
72.0123
69.4326
69.4326
64.547
64.547
69.4326
69.4326
66.9452
66.9452
66.9452
66.9452
62.2346
62.2346
60.0051
60.0051
60.0051
60.0051
64.547
64.547
57.8555
57.8555
64.547
64.547
64.547
64.547
57.8555
57.8555
57.8555
57.8555
64.547
64.547
62.2346
62.2346
51.8578
51.8578
55.7829
55.7829
62.2346
62.2346
66.9452
66.9452
53.7845
53.7845
60.0051
60.0051
53.7845
53.7845
62.2346
62.2346
62.2346
62.2346
60.0051
60.0051
60.0051
60.0051
57.8555
57.8555
57.8555
57.8555
60.0051
60.0051
51.8578
51.8578
53.7845
53.7845
53.7845
53.7845
57.8555
57.8555
60.0051
60.0051
55.7829
55.7829
55.7829
55.7829
51.8578
51.8578
60.0051
60.0051
55.7829
55.7829
51.8578
51.8578
51.8578
51.8578
57.8555
57.8555
55.7829
55.7829
62.2346
62.2346
57.8555
57.8555
53.7845
53.7845
51.8578
51.8578
55.7829
55.7829
60.0051
60.0051
60.0051
60.0051
55.7829
55.7829
55.7829
55.7829
53.7845
53.7845
50
50
48.2088
48.2088
53.7845
53.7845
55.7829
55.7829
44.8166
44.8166
53.7845
53.7845
55.7829
55.7829
55.7829
55.7829
57.8555
57.8555
51.8578
51.8578
55.7829
55.7829
57.8555
57.8555
50
50
55.7829
55.7829
55.7829
55.7829
51.8578
51.8578
57.8555
57.8555
55.7829
55.7829
57.8555
57.8555
50
50
53.7845
53.7845
53.7845
53.7845
50
50
53.7845
53.7845
46.4818
46.4818
48.2088
48.2088
53.7845
53.7845
50
50
60.0051
60.0051
48.2088
48.2088
50
50
44.8166
44.8166
46.4818
46.4818
50
50
53.7845
53.7845
50
50
48.2088
48.2088
50
50
53.7845
53.7845
51.8578
51.8578
55.7829
55.7829
53.7845
53.7845
46.4818
46.4818
48.2088
48.2088
51.8578
51.8578
44.8166
44.8166
46.4818
46.4818
48.2088
48.2088
44.8166
44.8166
43.2111
43.2111
51.8578
51.8578
44.8166
44.8166
44.8166
44.8166
43.2111
43.2111
53.7845
53.7845
44.8166
44.8166
43.2111
43.2111
51.8578
51.8578
43.2111
43.2111
46.4818
46.4818
50
50
44.8166
44.8166
50
50
48.2088
48.2088
46.4818
46.4818
55.7829
55.7829
43.2111
43.2111
51.8578
51.8578
46.4818
46.4818
44.8166
44.8166
46.4818
46.4818
41.6631
41.6631
41.6631
41.6631
53.7845
53.7845
46.4818
46.4818
41.6631
41.6631
48.2088
48.2088
38.7315
38.7315
44.8166
44.8166
40.1706
40.1706
40.1706
40.1706
40.1706
40.1706
38.7315
38.7315
48.2088
48.2088
43.2111
43.2111
46.4818
46.4818
38.7315
38.7315
38.7315
38.7315
40.1706
40.1706
46.4818
46.4818
46.4818
46.4818
44.8166
44.8166
40.1706
40.1706
43.2111
43.2111
41.6631
41.6631
40.1706
40.1706
38.7315
38.7315
43.2111
43.2111
40.1706
40.1706
40.1706
40.1706
46.4818
46.4818
38.7315
38.7315
46.4818
46.4818
36.0062
36.0062
36.0062
36.0062
36.0062
36.0062
34.7163
34.7163
43.2111
43.2111
34.7163
34.7163
36.0062
36.0062
34.7163
34.7163
33.4726
33.4726
34.7163
34.7163
33.4726
33.4726
92.9635
92.9635
86.4222
86.4222
83.3262
83.3262
80.3411
80.3411
80.3411
80.3411
74.6879
74.6879
66.9452
66.9452
69.4326
69.4326
66.9452
66.9452
64.547
64.547
77.463
77.463
72.0123
72.0123
69.4326
69.4326
74.6879
74.6879
74.6879
74.6879
77.463
77.463
72.0123
72.0123
64.547
64.547
64.547
64.547
69.4326
69.4326
72.0123
72.0123
62.2346
62.2346
62.2346
62.2346
69.4326
69.4326
62.2346
62.2346
60.0051
60.0051
66.9452
66.9452
66.9452
66.9452
66.9452
66.9452
64.547
64.547
62.2346
62.2346
64.547
64.547
60.0051
60.0051
66.9452
66.9452
57.8555
57.8555
64.547
64.547
55.7829
55.7829
60.0051
60.0051
64.547
64.547
55.7829
55.7829
53.7845
53.7845
53.7845
53.7845
51.8578
51.8578
50
50
60.0051
60.0051
62.2346
62.2346
57.8555
57.8555
57.8555
57.8555
62.2346
62.2346
60.0051
60.0051
60.0051
60.0051
57.8555
57.8555
62.2346
62.2346
60.0051
60.0051
55.7829
55.7829
53.7845
53.7845
64.547
64.547
51.8578
51.8578
50
50
53.7845
53.7845
55.7829
55.7829
53.7845
53.7845
62.2346
62.2346
60.0051
60.0051
50
50
50
50
50
50
57.8555
57.8555
48.2088
48.2088
60.0051
60.0051
53.7845
53.7845
57.8555
57.8555
60.0051
60.0051
48.2088
48.2088
55.7829
55.7829
53.7845
53.7845
55.7829
55.7829
57.8555
57.8555
60.0051
60.0051
55.7829
55.7829
53.7845
53.7845
46.4818
46.4818
53.7845
53.7845
50
50
57.8555
57.8555
50
50
51.8578
51.8578
53.7845
53.7845
48.2088
48.2088
48.2088
48.2088
44.8166
44.8166
51.8578
51.8578
50
50
55.7829
55.7829
46.4818
46.4818
51.8578
51.8578
53.7845
53.7845
50
50
51.8578
51.8578
51.8578
51.8578
51.8578
51.8578
57.8555
57.8555
50
50
51.8578
51.8578
48.2088
48.2088
51.8578
51.8578
57.8555
57.8555
55.7829
55.7829
53.7845
53.7845
55.7829
55.7829
51.8578
51.8578
48.2088
48.2088
46.4818
46.4818
46.4818
46.4818
41.6631
41.6631
46.4818
46.4818
43.2111
43.2111
50
50
44.8166
44.8166
53.7845
53.7845
44.8166
44.8166
43.2111
43.2111
50
50
44.8166
44.8166
50
50
51.8578
51.8578
51.8578
51.8578
53.7845
53.7845
50
50
40.1706
40.1706
57.8555
57.8555
50
50
50
50
50
50
43.2111
43.2111
44.8166
44.8166
51.8578
51.8578
44.8166
44.8166
50
50
41.6631
41.6631
53.7845
53.7845
48.2088
48.2088
48.2088
48.2088
44.8166
44.8166
50
50
38.7315
38.7315
46.4818
46.4818
43.2111
43.2111
43.2111
43.2111
44.8166
44.8166
43.2111
43.2111
40.1706
40.1706
41.6631
41.6631
44.8166
44.8166
50
50
38.7315
38.7315
37.344
37.344
38.7315
38.7315
41.6631
41.6631
38.7315
38.7315
44.8166
44.8166
43.2111
43.2111
40.1706
40.1706
38.7315
38.7315
36.0062
36.0062
43.2111
43.2111
38.7315
38.7315
37.344
37.344
41.6631
41.6631
37.344
37.344
34.7163
34.7163
40.1706
40.1706
37.344
37.344
38.7315
38.7315
37.344
37.344
40.1706
40.1706
37.344
37.344
36.0062
36.0062
37.344
37.344
34.7163
34.7163
34.7163
34.7163
34.7163
34.7163
33.4726
33.4726
41.6631
41.6631
43.2111
43.2111
46.4818
46.4818
33.4726
33.4726
32.2735
32.2735
34.7163
34.7163
89.6332
89.6332
80.3411
80.3411
77.463
77.463
74.6879
74.6879
74.6879
74.6879
72.0123
72.0123
64.547
64.547
66.9452
66.9452
57.8555
57.8555
62.2346
62.2346
55.7829
55.7829
74.6879
74.6879
60.0051
60.0051
72.0123
72.0123
69.4326
69.4326
55.7829
55.7829
62.2346
62.2346
66.9452
66.9452
62.2346
62.2346
72.0123
72.0123
66.9452
66.9452
69.4326
69.4326
50
50
66.9452
66.9452
62.2346
62.2346
69.4326
69.4326
64.547
64.547
57.8555
57.8555
62.2346
62.2346
62.2346
62.2346
53.7845
53.7845
60.0051
60.0051
55.7829
55.7829
64.547
64.547
60.0051
60.0051
57.8555
57.8555
57.8555
57.8555
62.2346
62.2346
53.7845
53.7845
62.2346
62.2346
62.2346
62.2346
53.7845
53.7845
60.0051
60.0051
62.2346
62.2346
55.7829
55.7829
60.0051
60.0051
51.8578
51.8578
57.8555
57.8555
55.7829
55.7829
53.7845
53.7845
60.0051
60.0051
60.0051
60.0051
51.8578
51.8578
51.8578
51.8578
51.8578
51.8578
55.7829
55.7829
51.8578
51.8578
50
50
50
50
57.8555
57.8555
53.7845
53.7845
57.8555
57.8555
60.0051
60.0051
60.0051
60.0051
55.7829
55.7829
53.7845
53.7845
53.7845
53.7845
48.2088
48.2088
46.4818
46.4818
48.2088
48.2088
57.8555
57.8555
46.4818
46.4818
55.7829
55.7829
62.2346
62.2346
53.7845
53.7845
53.7845
53.7845
51.8578
51.8578
50
50
53.7845
53.7845
48.2088
48.2088
62.2346
62.2346
100
96.4176
96.4176
89.6332
89.6332
86.4222
86.4222
92.9635
92.9635
83.3262
83.3262
89.6332
89.6332
80.3411
80.3411
86.4222
86.4222
83.3262
83.3262
77.463
77.463
77.463
77.463
80.3411
80.3411
74.6879
74.6879
72.0123
72.0123
74.6879
74.6879
77.463
77.463
69.4326
69.4326
72.0123
72.0123
74.6879
74.6879
66.9452
66.9452
69.4326
69.4326
77.463
77.463
72.0123
72.0123
69.4326
69.4326
66.9452
66.9452
69.4326
69.4326
64.547
64.547
64.547
64.547
66.9452
66.9452
66.9452
66.9452
66.9452
66.9452
64.547
64.547
64.547
64.547
62.2346
62.2346
62.2346
62.2346
64.547
64.547
62.2346
62.2346
62.2346
62.2346
60.0051
60.0051
57.8555
57.8555
62.2346
62.2346
60.0051
60.0051
60.0051
60.0051
64.547
64.547
60.0051
60.0051
57.8555
57.8555
60.0051
60.0051
57.8555
57.8555
55.7829
55.7829
55.7829
55.7829
57.8555
57.8555
57.8555
57.8555
55.7829
55.7829
57.8555
57.8555
53.7845
53.7845
51.8578
51.8578
55.7829
55.7829
53.7845
53.7845
53.7845
53.7845
55.7829
55.7829
53.7845
53.7845
51.8578
51.8578
50
50
48.2088
48.2088
46.4818
46.4818
51.8578
51.8578
53.7845
53.7845
50
50
51.8578
51.8578
44.8166
44.8166
46.4818
46.4818
50
50
51.8578
51.8578
48.2088
48.2088
44.8166
44.8166
44.8166
44.8166
48.2088
48.2088
51.8578
51.8578
50
50
46.4818
46.4818
44.8166
44.8166
43.2111
43.2111
46.4818
46.4818
50
50
41.6631
41.6631
44.8166
44.8166
41.6631
41.6631
48.2088
48.2088
48.2088
48.2088
40.1706
40.1706
40.1706
40.1706
38.7315
38.7315
38.7315
38.7315
36.0062
36.0062
43.2111
43.2111
37.344
37.344
37.344
37.344
36.0062
36.0062
34.7163
34.7163
34.7163
34.7163
41.6631
41.6631
36.0062
36.0062
33.4726
33.4726
34.7163
34.7163
33.4726
33.4726
40.1706
40.1706
33.4726
33.4726
62.2346
62.2346
60.0051
60.0051
92.9635
92.9635
89.6332
89.6332
80.3411
80.3411
80.3411
80.3411
83.3262
83.3262
80.3411
80.3411
77.463
77.463
86.4222
86.4222
74.6879
74.6879
77.463
77.463
74.6879
74.6879
72.0123
72.0123
74.6879
74.6879
74.6879
74.6879
72.0123
72.0123
80.3411
80.3411
74.6879
74.6879
72.0123
72.0123
77.463
77.463
72.0123
72.0123
69.4326
69.4326
66.9452
66.9452
69.4326
69.4326
64.547
64.547
74.6879
74.6879
66.9452
66.9452
72.0123
72.0123
74.6879
74.6879
64.547
64.547
66.9452
66.9452
