# vtk DataFile Version 3.0
Tree
ASCII
DATASET POLYDATA
POINTS 1582 float
162774 225274 273.8
162774 225274 10273.8
141774 225774 23773.8
134174 214102 30497.8
136454 217603 28480.6
143774 208774 53957.8
139821 213542 40200.2
119774 201842 57773.8
144006 208801 52177.4
153058 199774 67773.8
146722 206093 56856.2
134774 198774 73969.8
123185 202391 57791
114774 193774 72897.8
120662 199806 62323
100690 189774 58773.8
152533 200279 64059.4
168774 183974 74773.8
135121 199190 72887.8
125774 193986 84773.8
163434 189653 73543.8
171234 183774 92773.8
134878 198899 73645
142774 195998 91773.8
167172 185677 74404.6
173782 166774 64773.8
104806 190943 61272.2
91573.8 178774 69773.8
115383 194593 72405.4
107774 187990 89773.8
127598 195393 83944.6
120774 193998 101774
167646 186478 83927.8
180018 165774 85773.8
171167 169183 64495.8
171998 153774 52773.8
140222 196781 89539
139774 195998 110774
175317 173641 85072.2
181774 167074 105774
96731.8 183726 69009.8
87773.8 176774 90429.8
172997 167497 64690.2
179986 148774 73773.8
92544.6 178919 69944.2
79717.8 161774 73773.8
140087 196546 95909.4
154774 193998 104774
93597 181580 83078.2
95773.8 184006 94773.8
121837 195005 101109
116774 196002 119774
178111 151729 70621.4
180070 133774 68773.8
180784 166978 104725
183774 161102 119774
119103 195543 111188
130774 195998 121774
119923 195382 108164
102774 193782 114774
129583 195875 119755
144774 195998 127774
142008 196233 91103.4
155970 192774 89773.8
179095 138798 67600.6
178002 124774 55773.8
178929 166567 86508.2
183998 151774 92773.8
182638 163335 114055
183998 145774 115774
154003 193071 103617
168806 187774 110774
88680.6 176740 88716.6
76365.8 161774 100774
83769.8 162781 72548.2
79529.8 145774 73773.8
81045.4 167461 96192.2
75553.8 152774 87773.8
81480.2 153597 73210.2
83529.8 143774 59773.8
88045.8 176764 89915.8
84773.8 181954 109774
117309 196375 119429
114774 199814 138774
142675 195653 124909
159078 193774 122774
130417 195961 121168
134774 197994 137774
144144 195895 126914
147774 195262 141774
178825 128140 56924.2
181774 121774 41181.8
166300 186724 109324
176774 177970 113774
182629 153528 91502.2
183998 135774 95773.8
183563 148033 117184
183998 133774 122774
77769.8 163480 99399.4
79541.8 142774 105774
183833 139193 120650
181986 136774 140774
182983 138080 129907
183998 156774 142774
82915 146721 63804.6
85017.8 129774 65773.8
134219 197339 136660
137774 197978 152774
113905 197302 136277
108774 194774 151966
85797.4 179967 106669
85773.8 177774 125898
80115 148121 73604.6
79569.8 135774 84773.8
78641 154454 103783
79561.8 150774 114774
105742 193578 115459
93773.8 191226 124774
97364.2 191931 121979
98773.8 191978 136774
181465 136531 139098
175774 131774 155970
146685 195451 137316
163018 191774 141774
168054 187459 110339
171258 185774 121774
183948 135399 122137
177774 118774 132806
109415 194057 148403
103462 184774 156774
85225.8 177353 115657
81773.8 166774 122794
183693 151166 138914
181874 151774 156774
136707 197786 147940
126774 200002 156774
84779.4 135785 63107
89773.8 120658 52773.8
137133 197851 152268
137082 197774 166774
85539.8 130539 65187
89477.8 116774 69773.8
183433 161772 118058
181998 166774 129774
79803.8 150662 111627
83593.8 140774 119774
108966 194559 150897
114282 191774 165774
80381.8 137427 82878.2
84317.8 123774 92773.8
86281.8 176926 124552
90773.8 172774 141890
180923 126346 125680
177774 112298 120774
83236.6 168790 122404
85565.8 160774 133774
177937 133581 149559
170402 119774 151774
104334 184977 154655
99773.8 174890 158774
83819.8 144061 60247
87489.8 136774 50773.8
177807 120258 132137
171938 114774 141774
88345.4 121573 66401.4
93485.8 108774 59773.8
177784 119219 132605
171842 108774 132774
82571 142835 116503
85761.8 130774 116774
175444 131991 154803
166774 127774 167326
170793 185753 121475
173258 183774 133774
89648.6 117193 69013.4
93529.8 107774 72773.8
148005 194995 141282
152774 192774 151954
181365 152979 154699
177978 156774 169774
112775 191126 163079
113774 181774 175218
178344 114691 120699
175774 102298 110774
84259.8 125920 90101.8
91493.8 112774 92773.8
137753 197375 164590
141774 194774 179150
84300.2 124418 91972.2
87641.8 120774 104774
172799 115275 139082
166774 107774 141130
84804.6 134392 116692
90349.8 128774 125774
140381 195635 169807
148774 189962 173774
175675 131839 155620
173774 139774 167970
101054 175917 158082
100122 162774 161774
170068 129376 162567
161978 117774 161774
98145.8 190817 134039
97005.8 183774 145774
172604 109876 131699
167774 100774 129130
87397.8 120789 100433
94253.8 111774 105774
112825 183227 170907
109494 168774 174774
167754 129011 166551
161774 130774 179130
92667.4 110969 62123.4
97553.8 99773.8 63773.8
183595 156491 141843
181886 168774 145774
178164 155025 166963
172774 151598 178774
173236 183468 131573
177854 177774 141774
176116 153723 171451
173774 163774 181018
151248 192925 151340
152774 190774 161958
91217.4 114405 91639
98773.8 103574 91773.8
169484 103400 128859
167914 96773.8 120774
100871 165343 161757
103678 155774 168774
168346 97722.6 121277
167974 90773.8 108774
90374.2 129732 125542
96773.8 125774 135326
176038 103445 110636
174514 95773.8 101774
111259 173553 174623
113774 166774 183362
173431 151136 176185
167206 141774 182774
88216.6 120503 103779
92773.8 118774 115958
172602 151490 178542
168774 152774 188026
93455.4 113508 105922
101774 106774 117134
175729 180393 137081
171774 185198 149774
172862 162237 180408
167842 169774 189774
181912 166017 145858
178774 172774 153954
97965 105266 91317.4
107570 94773.8 88773.8
174277 96865 104027
169886 88773.8 100774
97936.6 100557 63525.8
104506 89773.8 64773.8
168043 97058.6 120925
160774 90773.8 121950
113019 168807 180740
110774 157774 179970
170031 90625.8 102052
159942 81773.8 101774
95433 127403 134007
99537.8 129774 144774
99702.6 108011 112646
107774 98773.8 113106
174443 96101.4 102450
174774 92773.8 91953.8
100433 96459 63999.8
102322 89773.8 53773.8
104688 97921.4 89537
105990 93773.8 78773.8
178378 172572 153093
173774 179774 160134
92715.4 118767 115121
97773.8 116774 126890
168068 168868 187525
159774 177838 191774
111520 159213 180294
111774 146774 180802
169929 89329.4 101157
167230 83773.8 89773.8
104665 90599 64845
113502 82773.8 66773.8
101837 106776 115775
109774 102282 123774
147068 190671 173683
152774 184086 180774
97321 128493 138960
94773.8 138774 143958
93563 108949 60179.8
97485.8 100774 52773.8
96371.4 126262 134930
100774 118774 133978
175892 176461 156895
175194 173774 168774
96085.4 136016 143727
97773.8 144774 154806
174802 92438.6 92462.2
175254 87773.8 81773.8
113547 167384 182575
116774 155774 191954
108191 103704 123044
113774 103774 133990
111845 148732 179978
112774 136774 175894
173874 178560 159832
166774 183170 169774
112802 83317.8 65876.6
121102 75773.8 65773.8
166775 84681.8 92427.4
158774 79545.8 86773.8
111795 147361 180555
117774 139774 187970
97132.2 141446 150596
103682 137774 159774
167093 84046.2 90569.8
166774 78773.8 77957.8
117119 156600 191364
120774 148774 197886
109299 102709 123555
115774 95773.8 120126
95089 138547 143656
91497.8 148774 142774
112894 137684 175440
113998 129774 170774
120201 149487 195969
123734 138774 196774
112810 137047 175758
121518 128774 181774
113781 103746 132406
121774 103774 143970
168411 181450 168645
164774 179774 180882
103213 156817 166892
105774 144774 168866
114908 97610.6 121837
125774 91557.8 123774
118097 103761 138651
115086 111774 147774
83287 141392 118792
87773.8 142774 132798
119906 94826.2 122728
124578 95773.8 132774
122605 93323 123209
126774 87545.8 114774
121621 103910 143373
127774 104774 149970
115116 109873 144441
107774 118230 146774
124856 90203.4 118654
134774 86353.8 119774
126533 105101 149317
130774 108774 158030
93033 146314 143923
93485.8 156774 148774
131005 87816.6 119348
136774 81733.8 108774
101193 139169 156286
106374 126774 155774
106361 129620 157058
112250 122774 159774
134120 84531.8 113638
128346 83773.8 104774
124823 92087.4 123604
135774 90361.8 129774
135493 82907.8 109605
135774 81525.8 99773.8
134858 81933.8 101620
129774 81773.8 94001.8
125098 95750.6 131383
131774 96773.8 139286
111993 123813 159601
121774 116994 163774
118840 119040 162522
124274 120774 173774
121677 117586 163731
131774 113774 168030
134818 215203 30649
131774 211210 37773.8
131728 211947 36270.2
125578 208774 40773.8
131760 211431 37322.6
136774 208058 54773.8
126706 209351 40451.4
121774 206774 47157.8
134171 208258 51705.4
131774 205882 58773.8
122915 207462 43945.4
114774 203774 44809.8
132173 205682 57962.6
129774 201774 65973.8
120807 201906 57083.8
112774 199986 52773.8
130298 201872 65395
129590 198774 70773.8
152733 200087 65471
146774 200774 69889.8
152960 199868 67083
157774 193774 78053.8
149038 200513 68210.6
149774 197774 75933.8
129023 199463 69451.4
123774 195954 74773.8
114404 199788 54422.2
104338 193774 53773.8
114957 194019 72750.2
107774 189222 75773.8
148979 198154 75377.4
147774 196002 82773.8
149535 197888 75767
166062 186774 65773.8
101925 190124 59523.4
95133.8 183774 61773.8
108672 189825 75926.2
102774 185894 79773.8
168517 184010 74865.4
172774 178026 76773.8
113949 191290 82507.4
115774 190030 87773.8
135537 196406 84597
133774 194022 91773.8
171709 179105 75545.8
175814 170774 72773.8
170916 183804 91225.4
175886 178774 98773.8
115135 190745 87050.6
115774 191986 95773.8
91865 178817 69825
87657.8 174774 63773.8
175066 171480 73941
177834 163774 73773.8
94537.4 182224 78857.8
88773.8 175978 80773.8
172557 159055 60471
174062 152774 60773.8
172157 157730 56985.8
170774 159774 50421.8
175104 179034 98318.2
178774 173954 105774
89218.2 176640 81000.6
83773.8 171206 83773.8
177377 164875 74239
179910 156774 76773.8
115582 191613 93157
107774 190022 99773.8
139943 196294 102747
127774 195962 108774
172040 154002 53491
171994 147774 49773.8
172011 153842 52989
170066 154774 44773.8
84500.2 171424 83166.2
80145.8 165774 84773.8
88919.8 175987 65589
81585.8 162774 65773.8
180631 160569 88805.4
182774 158774 105594
[...]
CELL_DATA 1581
SCALARS radius float
LOOKUP_TABLE default
100
100
100
100
96.4176
96.4176
89.6332
89.6332
86.4222
86.4222
83.3262
83.3262
86.4222
86.4222
83.3262
83.3262
80.3411
80.3411
80.3411
80.3411
77.463
77.463
77.463
77.463
74.6879
74.6879
80.3411
80.3411
77.463
77.463
77.463
77.463
74.6879
74.6879
69.4326
69.4326
72.0123
72.0123
72.0123
72.0123
77.463
77.463
66.9452
66.9452
74.6879
74.6879
69.4326
69.4326
72.0123
72.0123
74.6879
74.6879
64.547
64.547
69.4326
69.4326
69.4326
69.4326
72.0123
72.0123
66.9452
66.9452
69.4326
69.4326
57.8555
57.8555
66.9452
66.9452
66.9452
66.9452
64.547
64.547
69.4326
69.4326
72.0123
72.0123
66.9452
66.9452
69.4326
69.4326
66.9452
66.9452
66.9452
66.9452
62.2346
62.2346
64.547
64.547
60.0051
60.0051
53.7845
53.7845
62.2346
62.2346
62.2346
62.2346
64.547
64.547
64.547
64.547
62.2346
62.2346
60.0051
60.0051
62.2346
62.2346
60.0051
60.0051
60.0051
60.0051
60.0051
60.0051
66.9452
66.9452
62.2346
62.2346
66.9452
66.9452
64.547
64.547
57.8555
57.8555
55.7829
55.7829
60.0051
60.0051
60.0051
60.0051
57.8555
57.8555
57.8555
57.8555
57.8555
57.8555
55.7829
55.7829
60.0051
60.0051
53.7845
53.7845
57.8555
57.8555
64.547
64.547
60.0051
60.0051
55.7829
55.7829
64.547
64.547
53.7845
53.7845
57.8555
57.8555
55.7829
55.7829
55.7829
55.7829
53.7845
53.7845
60.0051
60.0051
53.7845
53.7845
55.7829
55.7829
51.8578
51.8578
57.8555
57.8555
53.7845
53.7845
55.7829
55.7829
53.7845
53.7845
53.7845
53.7845
55.7829
55.7829
53.7845
53.7845
55.7829
55.7829
62.2346
62.2346
48.2088
48.2088
60.0051
60.0051
51.8578
51.8578
55.7829
55.7829
46.4818
46.4818
51.8578
51.8578
50
50
48.2088
48.2088
57.8555
57.8555
50
50
57.8555
57.8555
50
50
46.4818
46.4818
51.8578
51.8578
55.7829
55.7829
51.8578
51.8578
53.7845
53.7845
50
50
50
50
55.7829
55.7829
48.2088
48.2088
48.2088
48.2088
46.4818
46.4818
53.7845
53.7845
50
50
48.2088
48.2088
46.4818
46.4818
55.7829
55.7829
44.8166
44.8166
55.7829
55.7829
51.8578
51.8578
44.8166
44.8166
53.7845
53.7845
50
50
48.2088
48.2088
50
50
44.8166
44.8166
46.4818
46.4818
46.4818
46.4818
51.8578
51.8578
53.7845
53.7845
46.4818
46.4818
48.2088
48.2088
48.2088
48.2088
51.8578
51.8578
51.8578
51.8578
41.6631
41.6631
44.8166
44.8166
44.8166
44.8166
46.4818
46.4818
51.8578
51.8578
44.8166
44.8166
50
50
50
50
50
50
48.2088
48.2088
48.2088
48.2088
44.8166
44.8166
44.8166
44.8166
50
50
43.2111
43.2111
46.4818
46.4818
43.2111
43.2111
40.1706
40.1706
41.6631
41.6631
46.4818
46.4818
38.7315
38.7315
41.6631
41.6631
48.2088
48.2088
46.4818
46.4818
40.1706
40.1706
38.7315
38.7315
38.7315
38.7315
46.4818
46.4818
43.2111
43.2111
46.4818
46.4818
46.4818
46.4818
44.8166
44.8166
55.7829
55.7829
44.8166
44.8166
43.2111
43.2111
43.2111
43.2111
43.2111
43.2111
41.6631
41.6631
41.6631
41.6631
43.2111
43.2111
40.1706
40.1706
44.8166
44.8166
43.2111
43.2111
38.7315
38.7315
41.6631
41.6631
37.344
37.344
36.0062
36.0062
43.2111
43.2111
41.6631
41.6631
38.7315
38.7315
37.344
37.344
92.9635
92.9635
89.6332
89.6332
86.4222
86.4222
86.4222
86.4222
80.3411
80.3411
83.3262
83.3262
77.463
77.463
83.3262
83.3262
74.6879
74.6879
77.463
77.463
74.6879
74.6879
72.0123
72.0123
69.4326
69.4326
80.3411
80.3411
74.6879
74.6879
69.4326
69.4326
66.9452
66.9452
77.463
77.463
69.4326
69.4326
72.0123
72.0123
74.6879
74.6879
74.6879
74.6879
66.9452
66.9452
69.4326
69.4326
72.0123
72.0123
72.0123
72.0123
64.547
64.547
74.6879
74.6879
64.547
64.547
62.2346
62.2346
62.2346
62.2346
72.0123
72.0123
62.2346
62.2346
69.4326
69.4326
64.547
64.547
60.0051
60.0051
57.8555
57.8555
66.9452
66.9452
66.9452
66.9452
64.547
64.547
64.547
64.547
62.2346
62.2346
66.9452
66.9452
60.0051
60.0051
62.2346
62.2346
62.2346
62.2346
57.8555
57.8555
64.547
64.547
62.2346
62.2346
60.0051
60.0051
64.547
64.547
62.2346
62.2346
55.7829
55.7829
62.2346
62.2346
60.0051
60.0051
66.9452
66.9452
62.2346
62.2346
64.547
64.547
60.0051
60.0051
60.0051
60.0051
51.8578
51.8578
60.0051
60.0051
64.547
64.547
57.8555
57.8555
62.2346
62.2346
57.8555
57.8555
57.8555
57.8555
50
50
62.2346
62.2346
57.8555
57.8555
57.8555
57.8555
62.2346
62.2346
53.7845
53.7845
60.0051
60.0051
55.7829
55.7829
51.8578
51.8578
57.8555
57.8555
55.7829
55.7829
62.2346
62.2346
55.7829
55.7829
55.7829
55.7829
60.0051
60.0051
53.7845
53.7845
53.7845
53.7845
55.7829
55.7829
62.2346
62.2346
51.8578
51.8578
51.8578
51.8578
55.7829
55.7829
51.8578
51.8578
60.0051
60.0051
51.8578
51.8578
51.8578
51.8578
62.2346
62.2346
50
50
53.7845
53.7845
50
50
51.8578
51.8578
53.7845
53.7845
51.8578
51.8578
51.8578
51.8578
50
50
51.8578
51.8578
53.7845
53.7845
51.8578
51.8578
55.7829
55.7829
55.7829
55.7829
51.8578
51.8578
48.2088
48.2088
53.7845
53.7845
51.8578
51.8578
50
50
57.8555
57.8555
48.2088
48.2088
51.8578
51.8578
51.8578
51.8578
44.8166
44.8166
50
50
46.4818
46.4818
50
50
51.8578
51.8578
48.2088
48.2088
50
50
46.4818
46.4818
48.2088
48.2088
44.8166
44.8166
46.4818
46.4818
50
50
44.8166
44.8166
53.7845
53.7845
43.2111
43.2111
50
50
51.8578
51.8578
48.2088
48.2088
48.2088
48.2088
44.8166
44.8166
48.2088
48.2088
51.8578
51.8578
44.8166
44.8166
48.2088
48.2088
41.6631
41.6631
43.2111
43.2111
41.6631
41.6631
51.8578
51.8578
41.6631
41.6631
50
50
50
50
38.7315
38.7315
41.6631
41.6631
46.4818
46.4818
50
50
50
50
43.2111
43.2111
44.8166
44.8166
48.2088
48.2088
50
50
43.2111
43.2111
43.2111
43.2111
41.6631
41.6631
38.7315
38.7315
48.2088
48.2088
40.1706
40.1706
41.6631
41.6631
44.8166
44.8166
48.2088
48.2088
44.8166
44.8166
40.1706
40.1706
46.4818
46.4818
43.2111
43.2111
37.344
37.344
43.2111
43.2111
36.0062
36.0062
41.6631
41.6631
40.1706
40.1706
38.7315
38.7315
41.6631
41.6631
34.7163
34.7163
44.8166
44.8166
51.8578
51.8578
41.6631
41.6631
41.6631
41.6631
40.1706
40.1706
41.6631
41.6631
41.6631
41.6631
40.1706
40.1706
38.7315
38.7315
41.6631
41.6631
36.0062
36.0062
46.4818
46.4818
41.6631
41.6631
36.0062
36.0062
38.7315
38.7315
92.9635
92.9635
89.6332
89.6332
83.3262
83.3262
77.463
77.463
74.6879
74.6879
74.6879
74.6879
74.6879
74.6879
77.463
77.463
72.0123
72.0123
66.9452
66.9452
64.547
64.547
69.4326
69.4326
80.3411
80.3411
72.0123
72.0123
64.547
64.547
77.463
77.463
72.0123
72.0123
64.547
64.547
66.9452
66.9452
69.4326
69.4326
66.9452
66.9452
60.0051
60.0051
72.0123
72.0123
72.0123
72.0123
72.0123
72.0123
72.0123
72.0123
64.547
64.547
69.4326
69.4326
69.4326
69.4326
72.0123
72.0123
66.9452
66.9452
69.4326
69.4326
62.2346
62.2346
60.0051
60.0051
62.2346
62.2346
55.7829
55.7829
64.547
64.547
60.0051
60.0051
60.0051
60.0051
57.8555
57.8555
60.0051
60.0051
57.8555
57.8555
55.7829
55.7829
60.0051
60.0051
62.2346
62.2346
62.2346
62.2346
60.0051
60.0051
64.547
64.547
60.0051
60.0051
69.4326
69.4326
55.7829
55.7829
55.7829
55.7829
64.547
64.547
60.0051
60.0051
66.9452
66.9452
55.7829
55.7829
64.547
64.547
62.2346
62.2346
60.0051
60.0051
57.8555
57.8555
66.9452
66.9452
51.8578
51.8578
51.8578
51.8578
57.8555
57.8555
60.0051
60.0051
48.2088
48.2088
55.7829
55.7829
60.0051
60.0051
57.8555
57.8555
60.0051
60.0051
60.0051
60.0051
57.8555
57.8555
60.0051
60.0051
51.8578
51.8578
53.7845
53.7845
57.8555
57.8555
55.7829
55.7829
53.7845
53.7845
57.8555
57.8555
66.9452
66.9452
55.7829
55.7829
55.7829
55.7829
53.7845
53.7845
53.7845
53.7845
55.7829
55.7829
55.7829
55.7829
57.8555
57.8555
51.8578
51.8578
53.7845
53.7845
53.7845
53.7845
51.8578
51.8578
51.8578
51.8578
51.8578
51.8578
55.7829
55.7829
53.7845
53.7845
55.7829
55.7829
57.8555
57.8555
53.7845
53.7845
53.7845
53.7845
50
50
50
50
53.7845
53.7845
50
50
60.0051
60.0051
51.8578
51.8578
57.8555
57.8555
50
50
46.4818
46.4818
48.2088
48.2088
44.8166
44.8166
51.8578
51.8578
55.7829
55.7829
43.2111
43.2111
53.7845
53.7845
50
50
48.2088
48.2088
50
50
51.8578
51.8578
48.2088
48.2088
46.4818
46.4818
48.2088
48.2088
48.2088
48.2088
50
50
53.7845
53.7845
53.7845
53.7845
43.2111
43.2111
53.7845
53.7845
48.2088
48.2088
53.7845
53.7845
43.2111
43.2111
44.8166
44.8166
43.2111
43.2111
43.2111
43.2111
57.8555
57.8555
51.8578
51.8578
46.4818
46.4818
43.2111
43.2111
44.8166
44.8166
46.4818
46.4818
43.2111
43.2111
43.2111
43.2111
50
50
51.8578
51.8578
44.8166
44.8166
43.2111
43.2111
46.4818
46.4818
40.1706
40.1706
44.8166
44.8166
43.2111
43.2111
41.6631
41.6631
41.6631
41.6631
38.7315
38.7315
40.1706
40.1706
48.2088
48.2088
46.4818
46.4818
38.7315
38.7315
46.4818
46.4818
41.6631
41.6631
44.8166
44.8166
46.4818
46.4818
46.4818
46.4818
41.6631
41.6631
37.344
37.344
46.4818
46.4818
40.1706
40.1706
44.8166
44.8166
40.1706
40.1706
37.344
37.344
50
50
50
50
43.2111
43.2111
44.8166
44.8166
37.344
37.344
41.6631
41.6631
40.1706
40.1706
48.2088
48.2088
44.8166
44.8166
38.7315
38.7315
37.344
37.344
40.1706
40.1706
40.1706
40.1706
44.8166
44.8166
40.1706
40.1706
38.7315
38.7315
34.7163
34.7163
40.1706
40.1706
37.344
37.344
89.6332
89.6332
83.3262
83.3262
72.0123
72.0123
80.3411
80.3411
77.463
77.463
72.0123
72.0123
69.4326
69.4326
66.9452
66.9452
66.9452
66.9452
74.6879
74.6879
64.547
64.547
62.2346
62.2346
77.463
77.463
74.6879
74.6879
66.9452
66.9452
64.547
64.547
64.547
64.547
69.4326
69.4326
57.8555
57.8555
74.6879
74.6879
62.2346
62.2346
69.4326
69.4326
64.547
64.547
66.9452
66.9452
64.547
64.547
64.547
64.547
60.0051
60.0051
64.547
64.547
66.9452
66.9452
57.8555
57.8555
60.0051
60.0051
62.2346
62.2346
66.9452
66.9452
64.547
64.547
69.4326
69.4326
69.4326
69.4326
57.8555
57.8555
64.547
64.547
64.547
64.547
66.9452
66.9452
62.2346
62.2346
53.7845
53.7845
64.547
64.547
66.9452
66.9452
62.2346
62.2346
51.8578
51.8578
62.2346
62.2346
57.8555
57.8555
62.2346
62.2346
60.0051
60.0051
66.9452
66.9452
62.2346
62.2346
57.8555
57.8555
55.7829
55.7829
53.7845
53.7845
50
50
62.2346
62.2346
60.0051
60.0051
55.7829
55.7829
50
50
57.8555
57.8555
60.0051
60.0051
50
50
55.7829
55.7829
57.8555
57.8555
55.7829
55.7829
60.0051
60.0051
55.7829
55.7829
50
50
57.8555
57.8555
46.4818
46.4818
55.7829
55.7829
57.8555
57.8555
57.8555
57.8555
64.547
64.547
64.547
64.547
60.0051
60.0051
53.7845
53.7845
50
50
55.7829
55.7829
57.8555
57.8555
53.7845
53.7845
100
96.4176
96.4176
89.6332
89.6332
86.4222
86.4222
92.9635
92.9635
83.3262
83.3262
89.6332
89.6332
80.3411
80.3411
77.463
77.463
77.463
77.463
74.6879
74.6879
74.6879
74.6879
72.0123
72.0123
69.4326
69.4326
72.0123
72.0123
66.9452
66.9452
66.9452
66.9452
69.4326
69.4326
64.547
64.547
66.9452
66.9452
62.2346
62.2346
72.0123
72.0123
60.0051
60.0051
60.0051
60.0051
57.8555
57.8555
64.547
64.547
57.8555
57.8555
55.7829
55.7829
55.7829
55.7829
55.7829
55.7829
53.7845
53.7845
55.7829
55.7829
53.7845
53.7845
62.2346
62.2346
51.8578
51.8578
51.8578
51.8578
53.7845
53.7845
50
50
51.8578
51.8578
50
50
48.2088
48.2088
50
50
48.2088
48.2088
60.0051
60.0051
57.8555
57.8555
51.8578
51.8578
55.7829
55.7829
46.4818
46.4818
46.4818
46.4818
46.4818
46.4818
44.8166
44.8166
44.8166
44.8166
57.8555
57.8555
53.7845
53.7845
44.8166
44.8166
53.7845
53.7845
43.2111
43.2111
43.2111
43.2111
41.6631
41.6631
41.6631
41.6631
41.6631
41.6631
40.1706
40.1706
51.8578
51.8578
50
50
48.2088
48.2088
38.7315
38.7315
40.1706
40.1706
46.4818
46.4818
40.1706
40.1706
37.344
37.344
37.344
37.344
44.8166
44.8166
38.7315
38.7315
37.344
37.344
44.8166
44.8166
38.7315
38.7315
36.0062
36.0062
34.7163
34.7163
33.4726
33.4726
43.2111
43.2111
37.344
37.344
43.2111
43.2111
36.0062
36.0062
34.7163
34.7163
32.2735
32.2735
31.1173
31.1173
32.2735
32.2735
41.6631
41.6631
30.0026
30.0026
34.7163
34.7163
31.1173
31.1173
28.9278
28.9278
27.8914
27.8914
27.8914
27.8914
40.1706
40.1706
26.8923
26.8923
26.8923
26.8923
25.9289
25.9289
25
25
25.9289
25.9289
38.7315
38.7315
25.9289
25.9289
24.1044
24.1044
25
25
37.344
37.344
25
25
23.2409
23.2409
92.9635
92.9635
89.6332
89.6332
86.4222
86.4222
80.3411
80.3411
77.463
77.463
77.463
77.463
83.3262
83.3262
74.6879
74.6879
80.3411
80.3411
77.463
77.463
74.6879
74.6879
86.4222
86.4222
83.3262
83.3262
74.6879
74.6879
72.0123
72.0123
69.4326
69.4326
66.9452
66.9452
69.4326
69.4326
64.547
64.547
69.4326
69.4326
66.9452
66.9452
62.2346
62.2346
66.9452
66.9452
60.0051
60.0051
64.547
64.547
64.547
64.547
64.547
64.547
69.4326
69.4326
64.547
64.547
62.2346
62.2346
62.2346
62.2346
60.0051
60.0051
53.7845
53.7845
