# vtk DataFile Version 3.0
Tree
ASCII
DATASET POLYDATA
POINTS 1582 float
162774 225274 273.8
162774 225274 10273.8
141774 225774 23773.8
134774 213034 31773.8
136874 216856 29373.8
138774 209222 53773.8
137596 213955 38645.8
118774 204022 49773.8
140647 209667 49228.6
155774 197866 67773.8
139336 209355 52410.2
131774 198014 74773.8
121717 204396 49293
107774 194006 60773.8
151130 200783 64586.6
151774 195942 80773.8
154381 198741 66817.8
170002 181774 71773.8
113909 197639 59057
108774 188042 83773.8
165315 186864 70287
171234 183774 92773.8
131543 199549 73886.6
124466 193774 90773.8
168596 183301 71327.8
173222 165774 63773.8
109126 194017 61021
91573.8 178774 69773.8
126589 195506 85707.8
139774 195998 103774
168511 185195 82429.8
178102 170774 86773.8
171177 182845 89865.8
179186 172774 103774
171799 168546 64133.4
171982 151774 51773.8
125103 194293 89253.8
115774 194002 109774
172795 166605 63881.8
179774 148774 72345.8
94166.6 179171 68042.6
80773.8 162774 73593.8
92351.4 178893 69254.2
87773.8 177254 91773.8
178051 172951 103516
181998 164774 114774
138314 195585 99175.8
154774 193998 105774
177227 153055 68183.4
179026 134774 63773.8
89147 177745 85017.8
98773.8 185998 95773.8
139336 195874 102395
140774 195998 122774
179010 150058 71097
183982 148774 87773.8
180896 165816 110693
183998 151774 113774
84230.6 165521 71140.2
79637.8 150774 66773.8
81811 163598 72857.8
77773.8 164798 90773.8
87350.6 177258 90688.6
80533.8 175774 104774
118153 194641 107033
114774 198002 129774
141549 195968 121243
144774 195998 134774
152587 193227 105623
165774 189430 112774
95885.8 183522 92547
91773.8 187030 108774
142169 195916 112932
152774 195886 119774
178486 140258 65096.6
183998 126774 78773.8
178672 135934 63294.2
178774 119950 54773.8
182912 155709 114516
183998 144774 126774
81427.4 152935 67252.6
83561.8 137774 61773.8
80276.6 164054 79665.8
77485.8 146774 89773.8
183412 150679 120155
183998 156774 135774
78323 151958 86741.4
77773.8 151774 109042
82267.8 174775 102685
79773.8 165774 117018
178719 128581 59375
183970 127774 38773.8
117776 196832 123355
127774 198050 140774
115505 197505 129393
110774 198050 146774
92044.2 185487 106076
85773.8 182774 120798
183483 145161 126137
181782 132774 138774
183444 148140 122907
183774 129774 118002
151451 195242 119607
163774 191230 131774
114085 197669 134608
101594 194774 137774
80174.6 151422 66917.4
80353.8 135774 78773.8
110953 196934 143076
103774 191030 150774
127395 197681 139922
133774 198014 150774
181820 134926 134942
178774 124258 135774
181793 133419 137624
177774 132750 152774
132853 197896 150381
137774 197974 161774
83533.8 139767 64093
87477.8 122774 67773.8
183822 154945 131088
182774 146774 145890
182615 132851 120627
180014 119774 121774
87746.6 182386 118783
87773.8 174774 134798
182946 149820 143277
181982 152774 155774
160077 192433 128124
158774 192014 144774
78026.6 151859 98783.8
81573.8 135774 107774
177947 131954 149383
171258 125774 157774
91855 186567 107965
100774 193986 120774
80846.2 138541 78619.8
82317.8 127774 91773.8
105927 192801 148464
110774 189974 162774
86294.6 127872 66669.4
90329.8 117774 55773.8
162665 191591 130679
173978 182774 126774
83553.4 138372 62469.4
87601.8 131774 50773.8
178592 125309 135191
173774 112774 134882
78697.8 150690 106553
83597.8 143774 122774
83296.2 128699 87844.6
87493.8 118774 92773.8
87484.2 175478 129232
85773.8 160774 135078
180417 121765 120624
177874 108774 115774
104012 194323 136919
94773.8 185970 137774
90491.8 118602 56413.4
93501.8 112774 49773.8
104420 191561 150081
100774 173774 159970
87710.6 123113 67719
92773.8 109538 70773.8
136731 197327 161137
141082 195774 175774
82127.8 145849 117908
85773.8 132774 118898
177147 121549 135099
169774 116006 146774
88349.4 174517 133976
92773.8 170774 146026
133497 197979 150656
147774 194014 150774
181246 152712 154695
177978 156774 169774
110343 189143 161686
114774 183774 175242
172016 127443 157219
163774 125774 169990
87072.6 165920 134277
90773.8 160774 143970
173985 113857 134365
168774 103590 130774
86267.4 162729 134773
82773.8 156774 125890
177539 110131 115957
173774 98773.8 110886
87136.2 120474 92703
93033.8 111774 101774
130779 197815 146407
122774 199986 158774
171485 126274 157607
161982 116774 158774
91254.6 113610 69857.4
96317.8 101774 60773.8
169679 186124 128258
177774 179026 139774
173795 128796 154868
170774 136774 169962
102251 174732 159254
101774 163774 165094
171986 117669 143271
163774 105774 142434
89377 117168 96149.8
94773.8 107574 91773.8
113445 185385 171175
110774 170774 176030
183614 157095 134409
181998 166774 145774
177847 154074 167221
173774 151774 177890
84680.2 136696 118601
91773.8 128774 128970
165719 127128 168051
161774 132230 180774
88705 118159 95115.8
90125.8 119774 110774
145055 194631 151862
155890 190774 158774
177939 155964 169008
173774 164774 180790
172107 183995 131713
169974 186774 143774
95014.2 108252 92264.2
100258 101774 89773.8
170181 105688 130510
168774 98773.8 121966
148306 193474 153935
147890 192774 164774
92449 113382 101345
97997.8 109774 112774
175382 102609 111385
175846 97773.8 101774
95713 103710 63786.2
101762 92773.8 64773.8
168104 98952.2 123246
164774 91509.8 116774
91249 131285 128643
96773.8 127774 137326
174359 151319 174867
167774 142774 182970
102711 165893 164732
107546 157774 173774
181332 166477 144107
177774 176774 152810
175669 99611 105426
165774 86129.8 102774
112055 173879 176099
114774 164774 185890
171857 148072 177946
166774 152774 192026
153873 191553 156133
164774 188050 154774
173147 163075 180147
166774 168774 191958
148859 192319 161988
153774 187774 171970
100034 102375 90306.2
108774 93573.8 88773.8
175432 97723.8 102364
173430 91773.8 94773.8
96840.6 109925 107909
106774 99773.8 113126
169196 104219 130695
161774 97773.8 132446
98308.6 109630 112222
103774 108282 123774
168331 167899 187518
161966 176774 189774
107183 158963 173401
111774 152742 182774
91616.2 129527 128872
97453.8 118774 126774
169377 90516.6 102302
166774 83761.8 92773.8
101390 94606.6 64951.8
110774 84773.8 67949.8
104956 90870.2 66091
109774 89773.8 78125.8
95116.2 128827 134721
98773.8 135774 149326
165923 87126.2 102167
155774 79773.8 99885.8
96477 101781 61050.2
99657.8 94773.8 51773.8
102134 108686 120308
110774 101506 122774
177895 174589 152135
171774 181026 164774
110814 153166 180283
113774 143774 183062
109470 85927.4 66574.6
116006 77773.8 62773.8
174491 93576.2 95750.6
176006 89773.8 82773.8
175455 176728 158765
175774 173774 167894
111486 152869 182027
116338 154774 191774
97646.2 135438 146212
97773.8 146774 155250
165927 84768.6 94143
160774 79637.8 86773.8
112886 146591 182228
111738 136774 174774
108182 103660 122034
114774 104774 135970
174942 89820.6 85857.4
171330 82773.8 79773.8
171928 180077 164131
165774 182534 171774
115121 153127 188953
119774 147774 195990
97694.6 139746 149646
103774 138570 160774
171247 83873 81136.2
163774 77033.8 77773.8
113507 144619 182812
120774 135774 189322
89663.4 162318 141062
91533.8 147774 142774
110676 101802 122817
119518 95773.8 125774
113235 137466 176272
114290 129774 171774
118594 138427 187369
120774 129774 183114
119077 148099 194262
123774 139774 197218
166421 170561 188195
165774 178774 181114
101786 140130 157875
104774 146774 167886
113317 105817 134815
117106 109774 147774
114337 105087 135623
123774 98773.8 137238
120188 101173 136624
125774 102774 145326
118426 96529 124415
128774 89541.8 121774
114209 108596 141025
110214 115774 146774
126260 90875.8 121367
130774 85593.8 113774
125106 103101 144959
129774 105774 153962
128612 89694.6 121429
136774 85773.8 120794
110531 115030 145642
104774 124306 149774
130535 86479.4 115264
137774 81733.8 109774
107422 120039 147873
110774 124774 159946
130702 85859.4 114221
129774 83561.8 104774
90802.6 161265 143767
95657.8 157774 154774
98435.4 135673 148392
104774 130774 155958
128725 89587.8 121671
132774 91773.8 130966
130939 84009.8 107100
135774 81017.8 97773.8
116417 110089 147072
117774 114294 155774
118071 113586 154868
120774 117774 164970
128206 105892 152625
127578 111774 161774
120884 116914 163615
126774 119706 174774
137206 215521 33639
143774 211982 35773.8
134682 214527 30969.8
126466 209774 34773.8
131560 212721 32415.4
131598 208774 50773.8
127379 210385 34928.2
120258 206774 41773.8
130238 208601 48360.2
126774 204774 57889.8
138943 209262 53364.6
142774 205402 61773.8
126482 204879 55802.6
121774 200774 61325.8
119500 203648 49770.2
111558 199774 51773.8
123186 202005 59668.6
125774 199182 68773.8
124169 200932 63128.6
118774 196774 67957.8
141599 205796 60928.6
141774 200774 71953.8
152617 197476 73533.4
159774 192034 78773.8
124792 199344 67498.2
122774 195962 73773.8
131704 198474 74507.8
135774 196070 80773.8
158323 193175 79057
162774 189890 85773.8
108179 194009 60847.8
99773.8 189254 55773.8
107674 190387 72307.4
104426 187774 74773.8
152027 196402 78601.8
143774 196014 83773.8
105071 188216 74807.8
102774 185894 79773.8
102548 190391 58660.6
93773.8 182774 60809.8
104619 187907 74784.2
97569.8 182774 74773.8
108356 188933 79416.6
118774 191990 84773.8
169580 182232 71639.8
175814 171774 73773.8
124657 193930 90317.8
115774 191950 94773.8
94901.8 183058 60952.2
87773.8 175082 63773.8
174829 172287 73462.6
177774 165774 74505.8
108487 188350 83368.6
107774 188014 91773.8
172788 158819 60127
174062 153774 60773.8
170665 172142 64485.4
169874 165774 52773.8
172481 156142 56952.6
170774 159126 49773.8
89912.6 177428 77785.4
84773.8 171954 81773.8
121652 194600 100914
125774 195218 107774
116961 192651 95225
110774 191874 99773.8
172083 152421 52031
171774 149094 46773.8
177289 166832 74961.8
179986 160774 79773.8
175291 174701 87493.4
181998 162774 102774
88464.6 177560 87173
83773.8 171774 88969.8
116237 194525 109538
111774 195774 116506
124965 195189 107270
128774 195998 115774
115913 194159 109703
105774 192042 108774
107951 192319 108185
101774 189942 102774
144332 194724 100300
153774 193982 94773.8
146250 196130 82222.2
[...]
CELL_DATA 1581
SCALARS radius float
LOOKUP_TABLE default
100
100
100
100
96.4176
96.4176
89.6332
89.6332
86.4222
86.4222
83.3262
83.3262
86.4222
86.4222
83.3262
83.3262
80.3411
80.3411
83.3262
83.3262
77.463
77.463
80.3411
80.3411
74.6879
74.6879
80.3411
80.3411
77.463
77.463
74.6879
74.6879
72.0123
72.0123
69.4326
69.4326
74.6879
74.6879
66.9452
66.9452
77.463
77.463
74.6879
74.6879
69.4326
69.4326
74.6879
74.6879
64.547
64.547
69.4326
69.4326
72.0123
72.0123
62.2346
62.2346
66.9452
66.9452
74.6879
74.6879
72.0123
72.0123
64.547
64.547
69.4326
69.4326
66.9452
66.9452
66.9452
66.9452
66.9452
66.9452
69.4326
69.4326
62.2346
62.2346
60.0051
60.0051
64.547
64.547
72.0123
72.0123
69.4326
69.4326
62.2346
62.2346
64.547
64.547
62.2346
62.2346
55.7829
55.7829
66.9452
66.9452
64.547
64.547
64.547
64.547
57.8555
57.8555
60.0051
60.0051
66.9452
66.9452
62.2346
62.2346
69.4326
69.4326
60.0051
60.0051
60.0051
60.0051
53.7845
53.7845
51.8578
51.8578
55.7829
55.7829
69.4326
69.4326
60.0051
60.0051
57.8555
57.8555
57.8555
57.8555
55.7829
55.7829
64.547
64.547
62.2346
62.2346
48.2088
48.2088
62.2346
62.2346
66.9452
66.9452
57.8555
57.8555
66.9452
66.9452
62.2346
62.2346
66.9452
66.9452
51.8578
51.8578
60.0051
60.0051
64.547
64.547
53.7845
53.7845
55.7829
55.7829
55.7829
55.7829
60.0051
60.0051
55.7829
55.7829
64.547
64.547
50
50
55.7829
55.7829
50
50
51.8578
51.8578
53.7845
53.7845
51.8578
51.8578
51.8578
51.8578
44.8166
44.8166
48.2088
48.2088
48.2088
48.2088
46.4818
46.4818
53.7845
53.7845
60.0051
60.0051
57.8555
57.8555
43.2111
43.2111
62.2346
62.2346
57.8555
57.8555
46.4818
46.4818
53.7845
53.7845
48.2088
48.2088
55.7829
55.7829
50
50
55.7829
55.7829
46.4818
46.4818
53.7845
53.7845
41.6631
41.6631
57.8555
57.8555
51.8578
51.8578
44.8166
44.8166
55.7829
55.7829
53.7845
53.7845
46.4818
46.4818
50
50
53.7845
53.7845
51.8578
51.8578
60.0051
60.0051
43.2111
43.2111
50
50
43.2111
43.2111
51.8578
51.8578
51.8578
51.8578
50
50
44.8166
44.8166
41.6631
41.6631
48.2088
48.2088
40.1706
40.1706
48.2088
48.2088
50
50
48.2088
48.2088
51.8578
51.8578
44.8166
44.8166
50
50
38.7315
38.7315
48.2088
48.2088
48.2088
48.2088
48.2088
48.2088
57.8555
57.8555
55.7829
55.7829
48.2088
48.2088
46.4818
46.4818
57.8555
57.8555
48.2088
48.2088
50
50
46.4818
46.4818
51.8578
51.8578
44.8166
44.8166
48.2088
48.2088
44.8166
44.8166
46.4818
46.4818
46.4818
46.4818
43.2111
43.2111
46.4818
46.4818
43.2111
43.2111
46.4818
46.4818
43.2111
43.2111
44.8166
44.8166
41.6631
41.6631
41.6631
41.6631
46.4818
46.4818
44.8166
44.8166
41.6631
41.6631
40.1706
40.1706
41.6631
41.6631
37.344
37.344
43.2111
43.2111
43.2111
43.2111
41.6631
41.6631
40.1706
40.1706
43.2111
43.2111
41.6631
41.6631
40.1706
40.1706
37.344
37.344
38.7315
38.7315
40.1706
40.1706
38.7315
38.7315
38.7315
38.7315
37.344
37.344
44.8166
44.8166
44.8166
44.8166
37.344
37.344
36.0062
36.0062
40.1706
40.1706
37.344
37.344
34.7163
34.7163
36.0062
36.0062
92.9635
92.9635
92.9635
92.9635
86.4222
86.4222
83.3262
83.3262
83.3262
83.3262
80.3411
80.3411
77.463
77.463
83.3262
83.3262
74.6879
74.6879
69.4326
69.4326
77.463
77.463
80.3411
80.3411
66.9452
66.9452
77.463
77.463
74.6879
74.6879
74.6879
74.6879
77.463
77.463
77.463
77.463
74.6879
74.6879
72.0123
72.0123
72.0123
72.0123
74.6879
74.6879
69.4326
69.4326
72.0123
72.0123
69.4326
69.4326
64.547
64.547
69.4326
69.4326
64.547
64.547
72.0123
72.0123
62.2346
62.2346
72.0123
72.0123
72.0123
72.0123
66.9452
66.9452
60.0051
60.0051
62.2346
62.2346
66.9452
66.9452
66.9452
66.9452
66.9452
66.9452
66.9452
66.9452
64.547
64.547
62.2346
62.2346
72.0123
72.0123
72.0123
72.0123
64.547
64.547
64.547
64.547
64.547
64.547
62.2346
62.2346
66.9452
66.9452
60.0051
60.0051
69.4326
69.4326
60.0051
60.0051
62.2346
62.2346
62.2346
62.2346
66.9452
66.9452
57.8555
57.8555
64.547
64.547
64.547
64.547
62.2346
62.2346
53.7845
53.7845
53.7845
53.7845
60.0051
60.0051
64.547
64.547
55.7829
55.7829
62.2346
62.2346
64.547
64.547
57.8555
57.8555
60.0051
60.0051
57.8555
57.8555
60.0051
60.0051
51.8578
51.8578
50
50
62.2346
62.2346
60.0051
60.0051
57.8555
57.8555
55.7829
55.7829
60.0051
60.0051
53.7845
53.7845
60.0051
60.0051
55.7829
55.7829
57.8555
57.8555
60.0051
60.0051
51.8578
51.8578
55.7829
55.7829
50
50
55.7829
55.7829
51.8578
51.8578
53.7845
53.7845
53.7845
53.7845
57.8555
57.8555
51.8578
51.8578
50
50
55.7829
55.7829
53.7845
53.7845
48.2088
48.2088
50
50
62.2346
62.2346
62.2346
62.2346
50
50
51.8578
51.8578
57.8555
57.8555
51.8578
51.8578
48.2088
48.2088
62.2346
62.2346
57.8555
57.8555
62.2346
62.2346
46.4818
46.4818
55.7829
55.7829
46.4818
46.4818
50
50
41.6631
41.6631
50
50
40.1706
40.1706
51.8578
51.8578
43.2111
43.2111
48.2088
48.2088
44.8166
44.8166
48.2088
48.2088
48.2088
48.2088
60.0051
60.0051
53.7845
53.7845
44.8166
44.8166
43.2111
43.2111
44.8166
44.8166
43.2111
43.2111
41.6631
41.6631
51.8578
51.8578
41.6631
41.6631
51.8578
51.8578
40.1706
40.1706
50
50
40.1706
40.1706
40.1706
40.1706
41.6631
41.6631
51.8578
51.8578
38.7315
38.7315
53.7845
53.7845
38.7315
38.7315
46.4818
46.4818
44.8166
44.8166
55.7829
55.7829
48.2088
48.2088
40.1706
40.1706
46.4818
46.4818
51.8578
51.8578
43.2111
43.2111
44.8166
44.8166
48.2088
48.2088
40.1706
40.1706
44.8166
44.8166
53.7845
53.7845
44.8166
44.8166
43.2111
43.2111
44.8166
44.8166
43.2111
43.2111
41.6631
41.6631
36.0062
36.0062
44.8166
44.8166
34.7163
34.7163
41.6631
41.6631
44.8166
44.8166
44.8166
44.8166
43.2111
43.2111
46.4818
46.4818
41.6631
41.6631
40.1706
40.1706
50
50
43.2111
43.2111
40.1706
40.1706
38.7315
38.7315
43.2111
43.2111
40.1706
40.1706
44.8166
44.8166
43.2111
43.2111
37.344
37.344
38.7315
38.7315
41.6631
41.6631
36.0062
36.0062
36.0062
36.0062
43.2111
43.2111
37.344
37.344
38.7315
38.7315
36.0062
36.0062
33.4726
33.4726
36.0062
36.0062
50
50
36.0062
36.0062
32.2735
32.2735
33.4726
33.4726
89.6332
89.6332
86.4222
86.4222
80.3411
80.3411
83.3262
83.3262
80.3411
80.3411
80.3411
80.3411
74.6879
74.6879
77.463
77.463
64.547
64.547
77.463
77.463
74.6879
74.6879
66.9452
66.9452
74.6879
74.6879
74.6879
74.6879
72.0123
72.0123
69.4326
69.4326
72.0123
72.0123
72.0123
72.0123
72.0123
72.0123
72.0123
72.0123
69.4326
69.4326
72.0123
72.0123
72.0123
72.0123
66.9452
66.9452
66.9452
66.9452
64.547
64.547
64.547
64.547
64.547
64.547
60.0051
60.0051
62.2346
62.2346
62.2346
62.2346
69.4326
69.4326
60.0051
60.0051
69.4326
69.4326
60.0051
60.0051
60.0051
60.0051
64.547
64.547
66.9452
66.9452
57.8555
57.8555
57.8555
57.8555
57.8555
57.8555
62.2346
62.2346
55.7829
55.7829
62.2346
62.2346
64.547
64.547
60.0051
60.0051
64.547
64.547
66.9452
66.9452
69.4326
69.4326
62.2346
62.2346
64.547
64.547
64.547
64.547
69.4326
69.4326
60.0051
60.0051
62.2346
62.2346
57.8555
57.8555
57.8555
57.8555
62.2346
62.2346
69.4326
69.4326
60.0051
60.0051
60.0051
60.0051
55.7829
55.7829
62.2346
62.2346
50
50
53.7845
53.7845
55.7829
55.7829
51.8578
51.8578
50
50
55.7829
55.7829
55.7829
55.7829
53.7845
53.7845
57.8555
57.8555
53.7845
53.7845
62.2346
62.2346
57.8555
57.8555
57.8555
57.8555
53.7845
53.7845
53.7845
53.7845
60.0051
60.0051
53.7845
53.7845
53.7845
53.7845
60.0051
60.0051
55.7829
55.7829
53.7845
53.7845
57.8555
57.8555
51.8578
51.8578
55.7829
55.7829
60.0051
60.0051
50
50
55.7829
55.7829
51.8578
51.8578
50
50
48.2088
48.2088
51.8578
51.8578
55.7829
55.7829
53.7845
53.7845
50
50
51.8578
51.8578
44.8166
44.8166
43.2111
43.2111
43.2111
43.2111
50
50
48.2088
48.2088
48.2088
48.2088
51.8578
51.8578
60.0051
60.0051
55.7829
55.7829
55.7829
55.7829
50
50
57.8555
57.8555
60.0051
60.0051
53.7845
53.7845
43.2111
43.2111
43.2111
43.2111
48.2088
48.2088
44.8166
44.8166
46.4818
46.4818
41.6631
41.6631
50
50
53.7845
53.7845
41.6631
41.6631
51.8578
51.8578
38.7315
38.7315
46.4818
46.4818
38.7315
38.7315
51.8578
51.8578
37.344
37.344
50
50
40.1706
40.1706
53.7845
53.7845
41.6631
41.6631
53.7845
53.7845
38.7315
38.7315
46.4818
46.4818
41.6631
41.6631
57.8555
57.8555
38.7315
38.7315
46.4818
46.4818
37.344
37.344
44.8166
44.8166
44.8166
44.8166
50
50
37.344
37.344
41.6631
41.6631
50
50
38.7315
38.7315
44.8166
44.8166
53.7845
53.7845
53.7845
53.7845
46.4818
46.4818
43.2111
43.2111
40.1706
40.1706
43.2111
43.2111
43.2111
43.2111
43.2111
43.2111
43.2111
43.2111
41.6631
41.6631
46.4818
46.4818
48.2088
48.2088
43.2111
43.2111
44.8166
44.8166
41.6631
41.6631
44.8166
44.8166
48.2088
48.2088
38.7315
38.7315
40.1706
40.1706
44.8166
44.8166
38.7315
38.7315
37.344
37.344
37.344
37.344
38.7315
38.7315
41.6631
41.6631
37.344
37.344
41.6631
41.6631
34.7163
34.7163
38.7315
38.7315
40.1706
40.1706
33.4726
33.4726
43.2111
43.2111
37.344
37.344
41.6631
41.6631
48.2088
48.2088
34.7163
34.7163
32.2735
32.2735
31.1173
31.1173
34.7163
34.7163
30.0026
30.0026
89.6332
89.6332
77.463
77.463
77.463
77.463
80.3411
80.3411
72.0123
72.0123
80.3411
80.3411
69.4326
69.4326
77.463
77.463
72.0123
72.0123
74.6879
74.6879
72.0123
72.0123
74.6879
74.6879
64.547
64.547
80.3411
80.3411
69.4326
69.4326
69.4326
69.4326
77.463
77.463
77.463
77.463
66.9452
66.9452
69.4326
69.4326
69.4326
69.4326
66.9452
66.9452
66.9452
66.9452
69.4326
69.4326
57.8555
57.8555
62.2346
62.2346
62.2346
62.2346
66.9452
66.9452
66.9452
66.9452
55.7829
55.7829
51.8578
51.8578
66.9452
66.9452
69.4326
69.4326
64.547
64.547
57.8555
57.8555
66.9452
66.9452
60.0051
60.0051
55.7829
55.7829
64.547
64.547
64.547
64.547
62.2346
62.2346
60.0051
60.0051
60.0051
60.0051
57.8555
57.8555
62.2346
62.2346
60.0051
60.0051
57.8555
57.8555
57.8555
57.8555
60.0051
60.0051
60.0051
60.0051
60.0051
60.0051
55.7829
55.7829
62.2346
62.2346
57.8555
57.8555
57.8555
57.8555
60.0051
60.0051
51.8578
51.8578
60.0051
60.0051
66.9452
66.9452
62.2346
62.2346
53.7845
53.7845
55.7829
55.7829
60.0051
60.0051
64.547
64.547
53.7845
53.7845
51.8578
51.8578
57.8555
57.8555
60.0051
60.0051
57.8555
57.8555
51.8578
51.8578
64.547
64.547
55.7829
55.7829
62.2346
62.2346
51.8578
51.8578
60.0051
60.0051
60.0051
60.0051
57.8555
57.8555
48.2088
48.2088
46.4818
46.4818
55.7829
55.7829
53.7845
53.7845
53.7845
53.7845
50
50
51.8578
51.8578
53.7845
53.7845
53.7845
53.7845
57.8555
57.8555
55.7829
55.7829
62.2346
62.2346
100
96.4176
96.4176
89.6332
89.6332
86.4222
86.4222
92.9635
92.9635
83.3262
83.3262
89.6332
89.6332
80.3411
80.3411
86.4222
86.4222
77.463
77.463
77.463
77.463
83.3262
83.3262
72.0123
72.0123
74.6879
74.6879
72.0123
72.0123
77.463
77.463
69.4326
69.4326
69.4326
69.4326
74.6879
74.6879
66.9452
66.9452
66.9452
66.9452
72.0123
72.0123
72.0123
72.0123
69.4326
69.4326
64.547
64.547
74.6879
74.6879
62.2346
62.2346
66.9452
66.9452
66.9452
66.9452
60.0051
60.0051
64.547
64.547
69.4326
69.4326
60.0051
60.0051
64.547
64.547
64.547
64.547
55.7829
55.7829
57.8555
57.8555
55.7829
55.7829
57.8555
57.8555
62.2346
62.2346
53.7845
53.7845
62.2346
62.2346
53.7845
53.7845
53.7845
53.7845
60.0051
60.0051
62.2346
62.2346
57.8555
57.8555
51.8578
51.8578
53.7845
53.7845
57.8555
57.8555
57.8555
57.8555
50
50
48.2088
48.2088
51.8578
51.8578
55.7829
55.7829
53.7845
53.7845
48.2088
48.2088
48.2088
48.2088
46.4818
46.4818
55.7829
55.7829
51.8578
51.8578
44.8166
44.8166
46.4818
46.4818
55.7829
55.7829
51.8578
51.8578
43.2111
43.2111
43.2111
43.2111
50
50
44.8166
44.8166
44.8166
44.8166
48.2088
48.2088
41.6631
41.6631
43.2111
43.2111
40.1706
40.1706
50
50
46.4818
46.4818
48.2088
48.2088
41.6631
41.6631
38.7315
38.7315
41.6631
41.6631
40.1706
40.1706
46.4818
46.4818
38.7315
38.7315
37.344
37.344
36.0062
36.0062
34.7163
34.7163
46.4818
46.4818
38.7315
38.7315
34.7163
34.7163
37.344
37.344
36.0062
36.0062
33.4726
33.4726
33.4726
33.4726
32.2735
32.2735
44.8166
44.8166
32.2735
32.2735
34.7163
34.7163
31.1173
31.1173
31.1173
31.1173
33.4726
33.4726
43.2111
43.2111
32.2735
32.2735
31.1173
31.1173
30.0026
30.0026
30.0026
30.0026
31.1173
31.1173
41.6631
41.6631
30.0026
30.0026
28.9278
28.9278
40.1706
40.1706
28.9278
28.9278
92.9635
92.9635
86.4222
86.4222
89.6332
89.6332
83.3262
83.3262
77.463
77.463
80.3411
80.3411
86.4222
86.4222
74.6879
74.6879
72.0123
72.0123
80.3411
80.3411
77.463
77.463
74.6879
74.6879
74.6879
74.6879
72.0123
72.0123
83.3262
83.3262
72.0123
72.0123
80.3411
80.3411
69.4326
69.4326
77.463
77.463
69.4326
69.4326
69.4326
69.4326
80.3411
80.3411
66.9452
66.9452
66.9452
66.9452
66.9452
66.9452
64.547
64.547
64.547
64.547
69.4326
69.4326
69.4326
69.4326
