# vtk DataFile Version 3.0
Tree
ASCII
DATASET POLYDATA
POINTS 1582 float
162774 225274 273.8
162774 225274 10273.8
141774 225774 23773.8
134446 214182 30497.8
136644 217659 28480.6
144774 208774 53889.8
140384 213572 40169
119774 201842 57773.8
144849 208732 52129
153774 199222 67773.8
148240 205118 58073.8
135774 198774 73981.8
123320 202410 57748.6
114774 193818 72773.8
120756 199833 62256.2
100774 189810 58773.8
153560 199595 64443
169246 183774 73773.8
135686 198936 73185.8
124774 193914 84773.8
164034 189311 73167.8
171234 183774 92773.8
114966 194921 69091.4
97773.8 183226 78773.8
132412 197429 76662.2
138774 195998 95773.8
167682 185435 73592.2
173978 163774 64773.8
167933 185361 80086.2
177994 171774 84773.8
102251 185746 74125
86773.8 171990 69773.8
125067 194425 83257.8
107774 188774 94225.8
171298 182649 90013
179946 171774 104774
171989 167802 65194.6
171914 150774 50773.8
114345 190921 90058.2
114774 194002 110774
173381 164982 64900.2
179990 146774 72773.8
98299 183473 78594.6
87773.8 177254 91773.8
136789 196570 94009
140774 195998 116774
90931.4 179120 87820.2
79613.8 164774 84773.8
138179 196169 95244.2
155774 193982 105774
175839 173202 83788.2
182006 155774 86773.8
139260 196215 108123
126774 195998 117774
177679 150767 68897.8
180002 129774 64773.8
178178 172190 102329
183998 153774 115774
83565.4 167975 83880.2
79545.8 151774 70773.8
87984.2 177021 90737.4
77773.8 168790 98773.8
87837 177184 91463
88773.8 183774 104414
128688 196646 117273
115774 198002 129774
140804 196074 115986
144774 195998 132774
154351 193232 105207
165774 189430 112774
179119 137751 66341
183998 127774 77773.8
179737 132167 65243.8
178002 120774 51773.8
182427 159026 114243
183998 155774 130774
82491.4 152728 72683
83017.8 139774 63773.8
80799.4 165734 84505.8
75569.8 149774 90773.8
183071 154633 115991
183998 137774 123774
81316.2 169568 97081
77549.8 153774 106774
180620 158099 86947.8
183998 138774 93773.8
83316.6 171804 95177.8
79773.8 173774 109886
116649 197404 129769
106482 197774 140774
142948 196033 125051
159074 193774 129774
122187 197055 124021
127294 198774 141774
88241 181995 103260
86773.8 183774 121150
143849 196011 132113
143774 195982 151774
179415 171899 104040
177890 176774 119774
183146 140369 120443
182014 127774 120774
183742 138552 122775
180002 127774 135774
181124 131007 131874
179946 135774 148774
181201 134361 137963
183946 145774 142774
183019 144922 142998
183774 155774 149074
78128.6 152980 88134.6
80773.8 132774 87593.8
110735 196355 138282
105634 188774 156774
83522.6 140891 65759.4
87637.8 122774 60773.8
79860.6 157148 106472
81497.8 147774 116774
141558 196554 148843
135774 197994 163774
80351.8 154336 109563
80997.8 137774 105774
179481 134187 145411
172774 128774 157958
87213.8 183240 115783
83605.8 166774 127774
85428.2 173097 124697
87601.8 170774 135774
86471.8 129255 61118.6
89597.8 123774 50773.8
116037 197823 129772
100774 193986 120774
87288.2 124718 60877.4
88153.8 117774 70773.8
182898 158051 119203
181886 168774 128774
87873.4 183765 119611
92773.8 185958 132774
107572 191655 149747
116578 195774 162774
105976 188613 154172
102126 178774 159774
181736 128935 120545
177846 111774 119774
177081 177174 117259
173258 183774 128774
81481 135600 89497.4
86321.8 119774 93773.8
142577 196291 150191
154774 192774 147954
87533 123357 60805
92317.8 109774 61773.8
137509 197562 159294
144774 193894 168774
183547 152518 147251
179774 153774 163938
113876 194538 158866
114774 187322 171774
180339 128744 134604
171238 113774 141774
89351 118195 61173
93561.8 110774 48773.8
174358 118313 138171
170774 108774 133962
83169 140109 64369.4
87501.8 139774 48773.8
174421 129498 153401
167774 120414 156774
81743.4 148495 114119
86773.8 132774 119958
142594 194994 165930
138774 196038 177774
91427.8 112300 61593.4
93773.8 106458 73773.8
183581 157593 127984
183774 163074 139774
173663 129165 155497
175206 139774 164774
87568.2 170561 134183
91553.8 164774 145774
177575 113503 118006
173774 100774 114886
173041 128891 157219
163294 126774 171774
81571.4 147990 115977
83493.8 154774 125774
179637 152633 161847
176050 150774 170774
91870.6 184780 131067
95773.8 181774 145970
171565 115223 141570
165774 112774 149326
86130.2 122367 92199
94289.8 107774 90773.8
103085 179470 158821
101554 164774 163774
177413 151480 167382
175906 160774 174774
113760 188091 167481
109774 174774 173382
171321 110121 134092
167774 99997.8 126774
86264.2 120552 93301.4
93569.8 112774 105774
124394 198568 138893
122774 200002 151774
168309 122217 156719
158774 115774 162890
92051 110532 61719.8
97553.8 99773.8 63773.8
173870 102500 114453
169774 92389.8 109774
88525.4 118623 98975
88325.8 121774 109774
174405 181794 125319
177774 177774 142098
165713 128230 169244
161774 133094 181774
84855.4 140094 118821
88521.8 136774 129774
146236 195236 149520
154774 190098 160774
87820.6 136801 125370
94773.8 126774 131958
154289 192912 147651
167774 189014 142774
176115 151191 170348
170774 150774 182026
175751 106709 114346
175930 98773.8 102774
175594 158965 174251
170774 165774 185298
111387 177389 173103
113610 167774 182774
94371 109316 91955.8
101574 100774 93773.8
177525 177339 141067
179774 172774 152798
93389 113713 105574
100130 107774 114774
167789 100935 127216
163774 91773.8 119990
89002.6 120643 108173
92773.8 119774 119162
171487 95702.2 110167
171774 90773.8 100882
97859.8 100394 63853.8
103130 91773.8 65773.8
169945 93385.4 109305
163774 85541.8 104774
102698 167202 163585
106774 153774 171974
171715 151446 180517
167194 154774 193774
161571 190807 145017
169986 184774 153774
170636 165326 183856
164774 171958 192774
92687.8 129782 129981
97773.8 130774 142970
171056 150975 181573
165774 143774 187970
106017 158754 170409
111554 155774 181774
99413 103337 93228.6
108774 91773.8 82881.8
144560 193598 168303
151186 187774 175774
98441.4 108906 110398
108774 97617.8 111774
172234 92778.6 102721
175774 92773.8 90809.8
100334 107981 114343
106774 105774 125134
171912 91375.4 101434
166774 83761.8 92773.8
96117 103435 63213.4
100318 93773.8 52773.8
94148.2 127676 131365
98325.8 117774 128774
168633 184745 153597
174774 177774 163150
102974 92981.4 65675.4
112182 83773.8 68773.8
164180 86827.8 105297
154774 79601.8 99773.8
109450 156906 177455
112774 144774 180026
165097 171086 190506
155774 178522 193774
174538 91983.8 93041
173774 87121.8 83773.8
96641.8 131626 140835
99497.8 138774 152774
110521 85040.2 66694.6
116774 77773.8 64889.8
106673 105640 123417
113774 102774 131334
111380 155675 181177
116774 151594 190774
110365 174988 173295
108118 166774 173774
96738.2 121537 129759
103510 116774 136774
154842 190251 158625
164774 184774 165962
98184.2 135486 147282
93761.8 148774 148774
167041 85225.4 94131.8
158774 79533.8 85773.8
111470 147620 178138
111774 134774 172970
112383 145628 179459
117706 140774 188774
173140 87265.8 85373
167774 78773.8 77325.8
173584 87165 84253.8
176774 84173.8 73773.8
112226 103968 130518
116414 105774 140774
113980 144171 182254
117774 133126 181774
113309 103132 131089
119774 95005.8 123774
162372 185558 165495
166774 179814 176774
99636.6 138183 152536
103774 142774 164806
167662 78851.8 77493
162774 71773.8 71025.8
88595.4 137348 128928
91601.8 140774 139774
90219 139198 134785
88773.8 148774 137890
116576 151037 189512
123774 143774 199978
101871 140662 159162
107774 134574 164774
115225 106126 139125
116002 111774 148774
113366 104788 133788
123774 99145.8 137774
119289 96435 125469
128774 89541.8 121774
120651 100839 136578
126774 103774 148862
126493 90850.2 121651
130774 85593.8 113774
90358.2 166510 142297
90361.8 155774 143774
115769 110079 145879
107774 119774 148574
125935 104235 147498
130774 108774 158030
129147 87591.4 116767
140774 84317.8 117774
106003 136400 163090
109774 124774 158890
109052 119547 149003
103774 127774 151970
130634 85899 113801
134774 81637.8 104774
95319.8 146166 149351
96361.8 155774 155774
128089 89934.2 121737
134774 90773.8 129890
102355 166473 163641
97485.8 163774 156774
133376 82775.8 105811
132774 81549.8 94773.8
123686 99401.4 137400
132738 95773.8 138774
109854 127723 160707
119774 116774 161370
116004 120935 161118
122774 119774 170886
120201 120215 167174
128774 113738 166774
135333 215632 30487.8
132774 211870 37773.8
134156 213901 33839.4
125774 209262 33773.8
132528 212465 36781.8
126774 209886 42773.8
127808 210385 40396.6
119774 207006 40773.8
144796 208761 53361.4
136774 206774 57969.8
124112 208831 40570.2
120774 205774 48965.8
138045 206751 57538.2
130378 202774 63773.8
121195 206528 45188.6
113526 201774 47773.8
120883 202039 57201
114774 201182 53773.8
131209 202888 63686.2
126774 199774 68805.8
112605 196689 59045.4
108774 197198 53773.8
153710 199334 66774.6
146774 199914 72773.8
153755 199255 67474.2
157118 193774 79773.8
127073 199703 68558.6
122774 195962 73773.8
153447 197033 73869.8
149774 196018 79773.8
156953 194019 79092.2
161774 189994 85773.8
114312 193830 72015.8
110774 189886 80773.8
160892 192396 70550.6
167890 184774 64773.8
102360 190051 59679
96297.8 184774 61773.8
149786 196289 79159.8
142774 195998 86773.8
105724 191915 60616.2
100774 186774 67957.8
166458 184923 65268.6
168774 178774 61589.8
95883 180828 70742.2
92773.8 179974 65773.8
110226 190077 79091.4
104774 186062 84773.8
124862 194067 84319
122750 193774 94773.8
172372 172904 69973
175874 167774 70773.8
90071 175333 69412.6
87553.8 173774 64773.8
173976 176145 82086.6
177782 170774 78773.8
97931.4 183300 78720.2
88773.8 175978 78773.8
175488 156881 66181.4
175234 150774 61773.8
123712 193930 93948.2
123774 193998 103774
174954 168309 71053.4
178058 158774 74773.8
87367.8 172502 70207.4
82773.8 167290 73773.8
85254.6 170104 71847.8
81773.8 165018 67773.8
124591 194803 102658
125774 195974 109774
113541 191732 97354.6
107774 190774 102226
171138 157812 52855.8
170014 155774 45773.8
178156 160622 75497.4
181026 154774 79773.8
178421 165047 85494.2
182022 159774 103774
81123.4 159518 74525
79549.8 157774 70773.8
87958.2 178627 95002.2
[...]
CELL_DATA 1581
SCALARS radius float
LOOKUP_TABLE default
100
100
100
100
96.4176
96.4176
89.6332
89.6332
86.4222
86.4222
83.3262
83.3262
86.4222
86.4222
83.3262
83.3262
80.3411
80.3411
80.3411
80.3411
74.6879
74.6879
80.3411
80.3411
77.463
77.463
72.0123
72.0123
72.0123
72.0123
77.463
77.463
72.0123
72.0123
69.4326
69.4326
66.9452
66.9452
69.4326
69.4326
64.547
64.547
74.6879
74.6879
74.6879
74.6879
72.0123
72.0123
72.0123
72.0123
62.2346
62.2346
72.0123
72.0123
60.0051
60.0051
66.9452
66.9452
69.4326
69.4326
69.4326
69.4326
66.9452
66.9452
69.4326
69.4326
66.9452
66.9452
60.0051
60.0051
55.7829
55.7829
53.7845
53.7845
64.547
64.547
64.547
64.547
66.9452
66.9452
62.2346
62.2346
64.547
64.547
57.8555
57.8555
66.9452
66.9452
64.547
64.547
64.547
64.547
66.9452
66.9452
62.2346
62.2346
62.2346
62.2346
64.547
64.547
60.0051
60.0051
57.8555
57.8555
55.7829
55.7829
53.7845
53.7845
51.8578
51.8578
64.547
64.547
62.2346
62.2346
62.2346
62.2346
62.2346
62.2346
60.0051
60.0051
60.0051
60.0051
51.8578
51.8578
60.0051
60.0051
57.8555
57.8555
57.8555
57.8555
62.2346
62.2346
55.7829
55.7829
60.0051
60.0051
57.8555
57.8555
60.0051
60.0051
57.8555
57.8555
55.7829
55.7829
57.8555
57.8555
62.2346
62.2346
57.8555
57.8555
53.7845
53.7845
57.8555
57.8555
48.2088
48.2088
57.8555
57.8555
53.7845
53.7845
51.8578
51.8578
50
50
60.0051
60.0051
50
50
57.8555
57.8555
53.7845
53.7845
50
50
57.8555
57.8555
48.2088
48.2088
55.7829
55.7829
51.8578
51.8578
46.4818
46.4818
55.7829
55.7829
44.8166
44.8166
53.7845
53.7845
48.2088
48.2088
60.0051
60.0051
53.7845
53.7845
43.2111
43.2111
53.7845
53.7845
48.2088
48.2088
57.8555
57.8555
60.0051
60.0051
48.2088
48.2088
46.4818
46.4818
48.2088
48.2088
55.7829
55.7829
53.7845
53.7845
44.8166
44.8166
55.7829
55.7829
55.7829
55.7829
53.7845
53.7845
53.7845
53.7845
41.6631
41.6631
50
50
40.1706
40.1706
50
50
55.7829
55.7829
50
50
53.7845
53.7845
41.6631
41.6631
51.8578
51.8578
46.4818
46.4818
43.2111
43.2111
44.8166
44.8166
51.8578
51.8578
40.1706
40.1706
51.8578
51.8578
36.0062
36.0062
51.8578
51.8578
38.7315
38.7315
48.2088
48.2088
53.7845
53.7845
51.8578
51.8578
51.8578
51.8578
44.8166
44.8166
50
50
43.2111
43.2111
44.8166
44.8166
50
50
48.2088
48.2088
41.6631
41.6631
40.1706
40.1706
46.4818
46.4818
33.4726
33.4726
43.2111
43.2111
50
50
38.7315
38.7315
46.4818
46.4818
44.8166
44.8166
48.2088
48.2088
46.4818
46.4818
51.8578
51.8578
48.2088
48.2088
41.6631
41.6631
44.8166
44.8166
43.2111
43.2111
40.1706
40.1706
38.7315
38.7315
44.8166
44.8166
41.6631
41.6631
43.2111
43.2111
48.2088
48.2088
44.8166
44.8166
38.7315
38.7315
50
50
48.2088
48.2088
43.2111
43.2111
43.2111
43.2111
41.6631
41.6631
43.2111
43.2111
41.6631
41.6631
40.1706
40.1706
40.1706
40.1706
51.8578
51.8578
40.1706
40.1706
37.344
37.344
38.7315
38.7315
41.6631
41.6631
37.344
37.344
37.344
37.344
46.4818
46.4818
38.7315
38.7315
50
50
33.4726
33.4726
38.7315
38.7315
40.1706
40.1706
38.7315
38.7315
37.344
37.344
92.9635
92.9635
89.6332
89.6332
86.4222
86.4222
80.3411
80.3411
83.3262
83.3262
77.463
77.463
77.463
77.463
74.6879
74.6879
83.3262
83.3262
69.4326
69.4326
77.463
77.463
77.463
77.463
74.6879
74.6879
64.547
64.547
69.4326
69.4326
64.547
64.547
77.463
77.463
77.463
77.463
69.4326
69.4326
66.9452
66.9452
72.0123
72.0123
72.0123
72.0123
74.6879
74.6879
72.0123
72.0123
69.4326
69.4326
69.4326
69.4326
72.0123
72.0123
64.547
64.547
72.0123
72.0123
62.2346
62.2346
64.547
64.547
66.9452
66.9452
69.4326
69.4326
66.9452
66.9452
62.2346
62.2346
66.9452
66.9452
60.0051
60.0051
64.547
64.547
60.0051
60.0051
66.9452
66.9452
64.547
64.547
62.2346
62.2346
62.2346
62.2346
64.547
64.547
62.2346
62.2346
62.2346
62.2346
69.4326
69.4326
55.7829
55.7829
64.547
64.547
62.2346
62.2346
55.7829
55.7829
60.0051
60.0051
64.547
64.547
55.7829
55.7829
50
50
62.2346
62.2346
62.2346
62.2346
60.0051
60.0051
57.8555
57.8555
66.9452
66.9452
60.0051
60.0051
62.2346
62.2346
62.2346
62.2346
64.547
64.547
48.2088
48.2088
60.0051
60.0051
60.0051
60.0051
46.4818
46.4818
62.2346
62.2346
57.8555
57.8555
50
50
44.8166
44.8166
62.2346
62.2346
62.2346
62.2346
48.2088
48.2088
43.2111
43.2111
57.8555
57.8555
60.0051
60.0051
55.7829
55.7829
60.0051
60.0051
60.0051
60.0051
60.0051
60.0051
55.7829
55.7829
60.0051
60.0051
57.8555
57.8555
55.7829
55.7829
60.0051
60.0051
55.7829
55.7829
53.7845
53.7845
51.8578
51.8578
57.8555
57.8555
55.7829
55.7829
55.7829
55.7829
51.8578
51.8578
60.0051
60.0051
57.8555
57.8555
50
50
53.7845
53.7845
55.7829
55.7829
55.7829
55.7829
50
50
55.7829
55.7829
57.8555
57.8555
55.7829
55.7829
50
50
53.7845
53.7845
46.4818
46.4818
53.7845
53.7845
46.4818
46.4818
51.8578
51.8578
55.7829
55.7829
53.7845
53.7845
55.7829
55.7829
51.8578
51.8578
48.2088
48.2088
46.4818
46.4818
53.7845
53.7845
50
50
41.6631
41.6631
55.7829
55.7829
43.2111
43.2111
51.8578
51.8578
46.4818
46.4818
57.8555
57.8555
50
50
44.8166
44.8166
51.8578
51.8578
44.8166
44.8166
48.2088
48.2088
48.2088
48.2088
43.2111
43.2111
48.2088
48.2088
48.2088
48.2088
38.7315
38.7315
44.8166
44.8166
51.8578
51.8578
55.7829
55.7829
53.7845
53.7845
50
50
41.6631
41.6631
57.8555
57.8555
41.6631
41.6631
50
50
37.344
37.344
50
50
53.7845
53.7845
43.2111
43.2111
48.2088
48.2088
41.6631
41.6631
46.4818
46.4818
48.2088
48.2088
43.2111
43.2111
40.1706
40.1706
38.7315
38.7315
46.4818
46.4818
48.2088
48.2088
38.7315
38.7315
41.6631
41.6631
62.2346
62.2346
40.1706
40.1706
34.7163
34.7163
38.7315
38.7315
40.1706
40.1706
46.4818
46.4818
50
50
48.2088
48.2088
41.6631
41.6631
43.2111
43.2111
32.2735
32.2735
44.8166
44.8166
50
50
41.6631
41.6631
44.8166
44.8166
36.0062
36.0062
48.2088
48.2088
46.4818
46.4818
46.4818
46.4818
40.1706
40.1706
40.1706
40.1706
41.6631
41.6631
41.6631
41.6631
40.1706
40.1706
38.7315
38.7315
41.6631
41.6631
40.1706
40.1706
41.6631
41.6631
38.7315
38.7315
38.7315
38.7315
38.7315
38.7315
36.0062
36.0062
50
50
34.7163
34.7163
36.0062
36.0062
37.344
37.344
38.7315
38.7315
34.7163
34.7163
48.2088
48.2088
38.7315
38.7315
36.0062
36.0062
36.0062
36.0062
92.9635
92.9635
89.6332
89.6332
80.3411
80.3411
74.6879
74.6879
86.4222
86.4222
66.9452
66.9452
74.6879
74.6879
66.9452
66.9452
72.0123
72.0123
72.0123
72.0123
83.3262
83.3262
74.6879
74.6879
80.3411
80.3411
69.4326
69.4326
60.0051
60.0051
62.2346
62.2346
74.6879
74.6879
69.4326
69.4326
69.4326
69.4326
69.4326
69.4326
66.9452
66.9452
72.0123
72.0123
66.9452
66.9452
62.2346
62.2346
69.4326
69.4326
62.2346
62.2346
64.547
64.547
57.8555
57.8555
66.9452
66.9452
66.9452
66.9452
60.0051
60.0051
62.2346
62.2346
57.8555
57.8555
64.547
64.547
60.0051
60.0051
62.2346
62.2346
69.4326
69.4326
57.8555
57.8555
51.8578
51.8578
64.547
64.547
62.2346
62.2346
64.547
64.547
51.8578
51.8578
53.7845
53.7845
55.7829
55.7829
60.0051
60.0051
60.0051
60.0051
64.547
64.547
60.0051
60.0051
57.8555
57.8555
60.0051
60.0051
60.0051
60.0051
60.0051
60.0051
60.0051
60.0051
60.0051
60.0051
57.8555
57.8555
46.4818
46.4818
48.2088
48.2088
53.7845
53.7845
60.0051
60.0051
57.8555
57.8555
55.7829
55.7829
46.4818
46.4818
51.8578
51.8578
57.8555
57.8555
57.8555
57.8555
53.7845
53.7845
51.8578
51.8578
53.7845
53.7845
55.7829
55.7829
55.7829
55.7829
57.8555
57.8555
57.8555
57.8555
51.8578
51.8578
48.2088
48.2088
53.7845
53.7845
51.8578
51.8578
50
50
48.2088
48.2088
53.7845
53.7845
51.8578
51.8578
50
50
57.8555
57.8555
53.7845
53.7845
53.7845
53.7845
53.7845
53.7845
57.8555
57.8555
48.2088
48.2088
55.7829
55.7829
48.2088
48.2088
55.7829
55.7829
51.8578
51.8578
48.2088
48.2088
55.7829
55.7829
53.7845
53.7845
53.7845
53.7845
57.8555
57.8555
53.7845
53.7845
46.4818
46.4818
50
50
48.2088
48.2088
53.7845
53.7845
41.6631
41.6631
53.7845
53.7845
53.7845
53.7845
50
50
53.7845
53.7845
51.8578
51.8578
51.8578
51.8578
46.4818
46.4818
48.2088
48.2088
46.4818
46.4818
50
50
40.1706
40.1706
51.8578
51.8578
40.1706
40.1706
46.4818
46.4818
44.8166
44.8166
50
50
53.7845
53.7845
48.2088
48.2088
51.8578
51.8578
43.2111
43.2111
48.2088
48.2088
43.2111
43.2111
46.4818
46.4818
43.2111
43.2111
53.7845
53.7845
51.8578
51.8578
43.2111
43.2111
51.8578
51.8578
38.7315
38.7315
53.7845
53.7845
50
50
40.1706
40.1706
43.2111
43.2111
40.1706
40.1706
50
50
51.8578
51.8578
48.2088
48.2088
41.6631
41.6631
37.344
37.344
46.4818
46.4818
48.2088
48.2088
48.2088
48.2088
50
50
40.1706
40.1706
46.4818
46.4818
33.4726
33.4726
41.6631
41.6631
41.6631
41.6631
37.344
37.344
44.8166
44.8166
43.2111
43.2111
44.8166
44.8166
40.1706
40.1706
46.4818
46.4818
40.1706
40.1706
34.7163
34.7163
43.2111
43.2111
44.8166
44.8166
38.7315
38.7315
46.4818
46.4818
44.8166
44.8166
40.1706
40.1706
44.8166
44.8166
38.7315
38.7315
37.344
37.344
40.1706
40.1706
40.1706
40.1706
51.8578
51.8578
48.2088
48.2088
36.0062
36.0062
48.2088
48.2088
36.0062
36.0062
33.4726
33.4726
38.7315
38.7315
46.4818
46.4818
34.7163
34.7163
36.0062
36.0062
32.2735
32.2735
32.2735
32.2735
33.4726
33.4726
89.6332
89.6332
83.3262
83.3262
77.463
77.463
72.0123
72.0123
80.3411
80.3411
80.3411
80.3411
74.6879
74.6879
72.0123
72.0123
72.0123
72.0123
74.6879
74.6879
66.9452
66.9452
64.547
64.547
72.0123
72.0123
74.6879
74.6879
74.6879
74.6879
66.9452
66.9452
57.8555
57.8555
69.4326
69.4326
69.4326
69.4326
69.4326
69.4326
66.9452
66.9452
64.547
64.547
62.2346
62.2346
66.9452
66.9452
57.8555
57.8555
62.2346
62.2346
60.0051
60.0051
62.2346
62.2346
62.2346
62.2346
64.547
64.547
64.547
64.547
64.547
64.547
60.0051
60.0051
57.8555
57.8555
60.0051
60.0051
57.8555
57.8555
55.7829
55.7829
57.8555
57.8555
55.7829
55.7829
53.7845
53.7845
53.7845
53.7845
53.7845
53.7845
62.2346
62.2346
62.2346
62.2346
66.9452
66.9452
60.0051
60.0051
60.0051
60.0051
53.7845
53.7845
57.8555
57.8555
60.0051
60.0051
57.8555
57.8555
62.2346
62.2346
53.7845
53.7845
55.7829
55.7829
57.8555
57.8555
60.0051
60.0051
51.8578
51.8578
62.2346
62.2346
57.8555
57.8555
57.8555
57.8555
55.7829
55.7829
57.8555
57.8555
60.0051
60.0051
57.8555
57.8555
53.7845
53.7845
55.7829
55.7829
55.7829
55.7829
53.7845
53.7845
57.8555
57.8555
60.0051
60.0051
55.7829
55.7829
53.7845
53.7845
55.7829
55.7829
55.7829
55.7829
53.7845
53.7845
53.7845
53.7845
51.8578
51.8578
51.8578
51.8578
57.8555
57.8555
100
96.4176
96.4176
89.6332
89.6332
86.4222
86.4222
92.9635
92.9635
83.3262
83.3262
80.3411
80.3411
77.463
77.463
77.463
77.463
74.6879
74.6879
69.4326
69.4326
74.6879
74.6879
74.6879
74.6879
66.9452
66.9452
72.0123
72.0123
72.0123
72.0123
69.4326
69.4326
69.4326
69.4326
66.9452
66.9452
64.547
64.547
66.9452
66.9452
64.547
64.547
64.547
64.547
62.2346
62.2346
62.2346
62.2346
62.2346
62.2346
60.0051
60.0051
60.0051
60.0051
72.0123
72.0123
62.2346
62.2346
60.0051
60.0051
57.8555
57.8555
60.0051
60.0051
69.4326
69.4326
60.0051
60.0051
57.8555
57.8555
62.2346
62.2346
57.8555
57.8555
55.7829
55.7829
55.7829
55.7829
53.7845
53.7845
57.8555
57.8555
51.8578
51.8578
53.7845
53.7845
51.8578
51.8578
55.7829
55.7829
57.8555
57.8555
53.7845
53.7845
50
50
50
50
53.7845
53.7845
51.8578
51.8578
48.2088
48.2088
51.8578
51.8578
48.2088
48.2088
51.8578
51.8578
46.4818
46.4818
46.4818
46.4818
50
50
46.4818
46.4818
46.4818
46.4818
48.2088
48.2088
50
50
44.8166
44.8166
44.8166
44.8166
44.8166
44.8166
43.2111
43.2111
46.4818
46.4818
43.2111
43.2111
44.8166
44.8166
41.6631
41.6631
41.6631
41.6631
43.2111
43.2111
44.8166
44.8166
43.2111
43.2111
40.1706
40.1706
40.1706
40.1706
38.7315
38.7315
43.2111
43.2111
41.6631
41.6631
38.7315
38.7315
37.344
37.344
43.2111
43.2111
40.1706
40.1706
41.6631
41.6631
36.0062
36.0062
37.344
37.344
36.0062
36.0062
41.6631
41.6631
38.7315
38.7315
34.7163
34.7163
34.7163
34.7163
34.7163
34.7163
32.2735
32.2735
31.1173
31.1173
40.1706
40.1706
33.4726
33.4726
33.4726
33.4726
30.0026
30.0026
32.2735
32.2735
32.2735
32.2735
38.7315
38.7315
31.1173
31.1173
28.9278
28.9278
31.1173
31.1173
31.1173
31.1173
37.344
37.344
66.9452
66.9452
92.9635
92.9635
89.6332
89.6332
86.4222
86.4222
80.3411
80.3411
77.463
77.463
83.3262
83.3262
74.6879
74.6879
72.0123
72.0123
89.6332
89.6332
86.4222
86.4222
74.6879
74.6879
72.0123
72.0123
69.4326
69.4326
72.0123
72.0123
72.0123
72.0123
66.9452
66.9452
66.9452
66.9452
64.547
64.547
69.4326
69.4326
66.9452
66.9452
66.9452
66.9452
64.547
64.547
62.2346
62.2346
62.2346
62.2346
60.0051
60.0051
60.0051
60.0051
66.9452
66.9452
64.547
64.547
64.547
64.547
64.547
64.547
64.547
64.547
60.0051
60.0051
