# vtk DataFile Version 3.0
Tree
ASCII
DATASET POLYDATA
POINTS 1582 float
162774 225274 273.8
162774 225274 10273.8
141774 225774 23773.8
134370 213774 30773.8
136591 217374 28673.8
145950 208774 52773.8
140147 214106 37831.8
120774 202010 57773.8
145691 208813 50559.4
155294 198774 65773.8
148572 205801 55123.8
135774 198774 73981.8
123743 202607 57222.6
114774 193774 72897.8
154386 199443 65418.2
161774 190002 83773.8
119617 198543 64433
100774 188046 60773.8
116227 195205 70358.2
124774 193914 84773.8
155021 198975 65667
172002 174774 66773.8
162616 190719 80980.2
173226 181774 94773.8
115210 194203 72135.8
105574 186774 84773.8
124426 194554 82701.8
138774 195998 97773.8
166735 178598 63339.8
172598 160774 55773.8
169194 185173 89532.2
179942 167774 84773.8
105269 189473 63594.6
85773.8 171994 71773.8
96529 181857 69422.2
91577.8 178774 84773.8
124669 194106 84152.2
114774 193998 107774
172366 181449 93500.6
181774 167074 104774
133192 195493 94598.6
134774 195998 112774
170839 166121 58043.4
179874 149774 72773.8
116724 192915 94195.4
104774 189946 99773.8
138167 195459 96434.6
154774 193994 99773.8
87806.2 172666 70999
79549.8 157774 70773.8
177163 154678 68354.6
179874 133774 64773.8
91262.2 178346 81867
79773.8 169774 93617.8
135747 195861 109267
144774 195998 122774
178821 146387 68809
183774 135774 78505.8
177494 170791 87038.6
183186 155774 91773.8
179386 167670 104526
183998 152774 116774
83794.6 173477 91067
79773.8 174794 104774
115300 194266 107188
114774 198002 129774
138455 195902 113319
130774 197774 128350
143068 195972 122041
144774 195998 135774
82026.6 162241 70841.4
75609.8 152774 85773.8
179130 136649 64086.2
177194 122774 49773.8
172968 181677 94391.8
169206 187774 113774
182384 158407 114447
183998 155774 130774
80293 159114 70794.2
81733.8 139774 65773.8
77505.4 155610 83998.2
76773.8 154774 101890
108099 191241 99641.4
98653.8 191774 112774
168922 186509 107130
157774 193982 114774
178218 126940 52279.4
180774 125774 40069.8
181592 156379 91658.6
183998 140774 96773.8
183304 153096 116473
183998 137774 121774
183789 142371 120184
182774 137774 135326
76178.6 153625 85241
79477.8 140774 81773.8
77227.4 155292 90797
77585.8 142774 97773.8
100297 190187 109654
86773.8 181774 123318
83411.4 141890 65111.4
86997.8 127774 59773.8
113936 196541 126666
107774 194774 151134
168787 187510 113157
167082 189774 129774
142777 196269 133207
134774 198002 151774
183628 138210 121370
181998 126774 123774
96239.8 187663 113753
97593.8 192774 133774
181782 138213 134154
177782 132774 152774
182080 138081 134506
183782 146774 144774
182487 130205 123053
177930 122774 136774
77628.6 153597 98923.8
81485.8 144774 114774
78892.6 142563 83409.8
81661.8 128774 86773.8
165861 189662 128377
160774 191962 143774
89469.8 182244 122378
87773.8 173774 135050
182733 145672 144568
181982 152774 155774
137895 197417 149753
136774 197894 165774
87582.6 181915 123036
81773.8 165774 123042
85636.2 132444 63469
88285.8 117774 69773.8
108737 193431 145669
102774 181774 159290
87144.6 128428 59807
91449.8 120774 50773.8
108063 194371 149495
114774 192774 163978
87279 123348 67377.8
91445.8 114774 60773.8
167909 188155 117723
174774 181974 126774
80328.6 147421 110019
83509.8 133774 110774
182145 127803 123557
177950 113774 122774
83516.6 170616 123040
85565.8 160774 133774
178982 134405 147188
171174 120774 151774
160035 191809 141479
153774 193386 148774
96562.2 189865 127327
93609.8 184774 137774
179208 117983 123009
172042 110774 133774
103465 182051 156157
100130 172774 159774
174765 127044 149664
167294 126774 165774
82790.6 147597 65093
86773.8 139594 50773.8
138453 197010 160866
145966 192774 170774
81909.8 130677 86758.2
88773.8 115774 93149.8
112822 192085 161349
113774 184774 173134
181629 151416 154428
178014 156774 167774
110633 193137 155896
121774 199834 159774
178142 133263 151098
175774 138774 162970
102464 179268 157242
93509.8 170774 147774
178327 115037 122844
173866 101774 115774
85067.4 123821 89698.2
86773.8 122774 103954
143712 194045 167801
139774 195774 179882
88605 118631 69723.4
93657.8 106774 76773.8
183543 157465 127906
183866 162774 141774
90562.6 116235 63505.4
95553.8 103774 63773.8
173263 183335 126010
177218 179774 138774
171431 122910 151847
161982 116774 158774
81681 144860 114527
85773.8 138774 124898
171641 111341 132880
164774 105774 141130
88257 117891 93429
94349.8 110774 103774
84853.8 139545 120561
91773.8 125586 125774
168597 121069 153925
164446 111774 149774
88619 116409 93233.8
94773.8 107574 88773.8
113021 185513 169406
110774 171774 175970
174988 104305 115516
172774 95657.8 106774
178396 154627 165587
173774 151774 177890
101504 174026 159553
102774 161774 165978
168678 127687 163408
162774 132774 179946
111402 195427 139453
114774 199910 148774
175530 152858 173215
171774 142774 174970
176031 180842 134945
171258 185774 143774
176390 153389 170926
172774 164774 181886
155652 192913 146585
156774 190042 159774
92034.6 113478 99843
98333.8 103774 97773.8
176892 179424 138055
179890 172774 149774
87562.6 122269 102422
91541.8 119774 114774
174202 102533 115697
166774 97773.8 125134
94379 111020 103518
100346 105774 111774
171379 100725 119283
165214 91773.8 117774
97467 105554 97212.6
104290 97773.8 89773.8
164788 132380 176043
165774 139774 183962
95579 105398 64038.2
102774 91773.8 65101.8
173762 97543.4 107051
173774 92509.8 97773.8
165803 139457 182777
167882 151774 190774
89885.4 131475 125492
99537.8 124774 139774
173070 96223.4 106857
163774 85773.8 106122
103564 162527 165763
105774 152774 171126
172531 161971 181192
167774 167774 191934
104227 159601 167372
109678 159774 178774
103908 98241 89928.2
108774 92773.8 83949.8
172365 184302 143070
169958 184774 155774
169581 165569 187852
164774 175774 187322
145769 192643 169678
152774 187214 173774
99371.4 106490 108744
108302 97773.8 110774
167293 97966.6 123315
158966 91773.8 126774
100053 105989 110865
103774 108774 125134
172685 93591.4 101343
166034 84773.8 94773.8
98313 100221 64442.2
100774 93573.8 53773.8
167068 87159.8 97633
156794 79773.8 98773.8
102623 92794.6 64737.8
110302 82773.8 63773.8
91866.2 127164 126213
98233.8 118774 129774
95869.8 127320 134347
97773.8 136774 148970
173499 93013.8 98054.2
175774 92169.8 86773.8
108043 159722 175353
112774 148774 181970
101467 107047 116287
110774 100774 121966
171807 183311 151470
175774 175774 164050
165496 171805 188453
155166 178774 193774
166344 85489.8 95631.4
169774 84773.8 87113.8
150350 188633 173600
152974 183774 182774
111355 152058 179985
111538 140774 175774
110063 84020.6 63802.2
118226 75773.8 62773.8
107052 103891 121053
112774 103774 132890
110361 154357 178595
116774 155774 191954
96979.8 135901 145558
95773.8 148774 152802
170027 184206 155323
164774 185210 165774
97322.2 120619 129792
104002 115774 136774
175195 91642.2 88559.4
176030 86773.8 77773.8
112863 148926 181956
117774 139774 187970
97535.4 136512 147946
103702 138774 160774
168745 84988.6 89669
164774 77773.8 78865.8
115602 154411 189177
120774 148774 197886
166192 184458 164240
164774 181774 174974
111381 142701 175817
110774 132774 167958
110397 101414 122107
119518 95773.8 125774
112469 104371 131870
118226 105774 142774
116475 141717 185302
120774 130774 183946
85599.8 161751 131856
89761.8 148774 140774
166266 79021.8 80447.8
167774 72773.8 69329.8
117384 140357 187169
123774 138658 196774
119140 134932 184461
116774 129774 175370
105186 155368 169699
103498 146774 164774
116332 97349.8 123217
124774 89705.8 118774
118562 96246.6 125007
123774 97773.8 135954
116499 105353 139503
114774 113454 148774
117708 105647 141793
126774 102774 145958
124021 103220 143847
129774 98773.8 141294
124313 91331 119967
132774 86773.8 117958
114399 112151 146598
108774 119774 151110
125948 102907 145325
131774 106774 155970
127823 105222 150667
124774 109774 156870
129559 88505.4 118721
130774 83773.8 108894
110968 133710 168229
110774 124774 159946
130117 86329 114201
140774 81773.8 111202
125886 90483.4 119593
134774 89773.8 128794
137577 83140.2 112101
139774 79773.8 101886
100542 173149 159708
97485.8 160774 156774
130404 84464.2 109195
129774 82317.8 97773.8
128781 99414.2 141238
133774 94773.8 135974
124897 109557 155881
119774 117002 161774
121987 114784 160987
122774 119774 170886
124811 109709 156573
130774 112774 165890
134784 214649 30879
131774 211026 36773.8
131887 211845 35882.2
126774 209886 41773.8
130353 211257 37649.8
136774 208774 53889.8
127180 209877 41500.2
122774 207178 47773.8
124448 208203 45389.8
117578 204774 43773.8
134480 208971 50328.6
132774 205394 59773.8
132200 205525 58284.6
128774 201774 65249.8
121665 202189 57608.2
113590 200774 51773.8
114988 201113 51774.2
111662 200774 46773.8
145145 203099 62266.6
148774 200050 69773.8
114009 200876 51773.8
107774 195774 56121.8
136343 199377 71671.8
129774 197222 75773.8
147613 200401 69331.4
148774 197818 76773.8
159689 191935 66173.8
165774 187986 73773.8
135945 198955 73289
134774 195998 83773.8
149020 198146 75464.2
152774 195182 81773.8
148848 197916 76381
145774 196010 83773.8
164831 188042 71696.6
170774 180774 73593.8
101917 188061 62126.6
95133.8 183774 61773.8
108364 189328 77758.6
101774 185282 77773.8
107081 188153 80985.8
112334 189774 88773.8
170254 180838 73189
174010 174774 73773.8
109856 189110 83478.6
116774 191866 83773.8
170968 174966 66250.2
174774 168774 69657.8
96011.8 183811 62149
88321.8 175774 63773.8
173810 177365 85329.8
176034 173774 80773.8
174413 169355 69719.8
177834 163774 73773.8
91745.8 178348 75543.4
87773.8 175258 77773.8
138592 195836 97371.8
142774 195998 104774
129861 195136 90077.8
124774 193998 102774
172041 161237 56106.6
172014 153774 53773.8
88197.4 176032 84617.8
83773.8 171206 83773.8
126555 194768 101287
126774 195774 108346
142765 195939 103335
150774 195886 108774
172017 154949 53703.8
171986 147774 48773.8
172025 156835 54424.6
170014 155774 45773.8
179200 165078 87651.4
181774 157774 82505.8
180491 160381 89815.4
182014 159774 102774
91483 178645 83901.8
[...]
CELL_DATA 1581
SCALARS radius float
LOOKUP_TABLE default
100
100
100
100
96.4176
96.4176
89.6332
89.6332
86.4222
86.4222
83.3262
83.3262
86.4222
86.4222
80.3411
80.3411
83.3262
83.3262
80.3411
80.3411
77.463
77.463
77.463
77.463
74.6879
74.6879
77.463
77.463
72.0123
72.0123
74.6879
74.6879
80.3411
80.3411
77.463
77.463
74.6879
74.6879
72.0123
72.0123
72.0123
72.0123
69.4326
69.4326
72.0123
72.0123
66.9452
66.9452
74.6879
74.6879
64.547
64.547
72.0123
72.0123
69.4326
69.4326
60.0051
60.0051
66.9452
66.9452
69.4326
69.4326
64.547
64.547
69.4326
69.4326
66.9452
66.9452
64.547
64.547
72.0123
72.0123
57.8555
57.8555
69.4326
69.4326
66.9452
66.9452
69.4326
69.4326
69.4326
69.4326
69.4326
69.4326
64.547
64.547
53.7845
53.7845
60.0051
60.0051
64.547
64.547
62.2346
62.2346
66.9452
66.9452
66.9452
66.9452
66.9452
66.9452
64.547
64.547
66.9452
66.9452
62.2346
62.2346
62.2346
62.2346
60.0051
60.0051
64.547
64.547
60.0051
60.0051
57.8555
57.8555
55.7829
55.7829
64.547
64.547
64.547
64.547
57.8555
57.8555
57.8555
57.8555
53.7845
53.7845
55.7829
55.7829
55.7829
55.7829
62.2346
62.2346
62.2346
62.2346
60.0051
60.0051
60.0051
60.0051
60.0051
60.0051
60.0051
60.0051
62.2346
62.2346
53.7845
53.7845
53.7845
53.7845
57.8555
57.8555
55.7829
55.7829
60.0051
60.0051
51.8578
51.8578
60.0051
60.0051
55.7829
55.7829
66.9452
66.9452
51.8578
51.8578
62.2346
62.2346
53.7845
53.7845
50
50
55.7829
55.7829
55.7829
55.7829
57.8555
57.8555
50
50
60.0051
60.0051
50
50
57.8555
57.8555
60.0051
60.0051
57.8555
57.8555
57.8555
57.8555
53.7845
53.7845
60.0051
60.0051
46.4818
46.4818
57.8555
57.8555
57.8555
57.8555
51.8578
51.8578
55.7829
55.7829
50
50
46.4818
46.4818
46.4818
46.4818
55.7829
55.7829
53.7845
53.7845
64.547
64.547
43.2111
43.2111
53.7845
53.7845
44.8166
44.8166
51.8578
51.8578
55.7829
55.7829
51.8578
51.8578
55.7829
55.7829
44.8166
44.8166
53.7845
53.7845
43.2111
43.2111
51.8578
51.8578
50
50
55.7829
55.7829
44.8166
44.8166
46.4818
46.4818
55.7829
55.7829
43.2111
43.2111
53.7845
53.7845
41.6631
41.6631
51.8578
51.8578
48.2088
48.2088
51.8578
51.8578
38.7315
38.7315
48.2088
48.2088
51.8578
51.8578
41.6631
41.6631
50
50
41.6631
41.6631
53.7845
53.7845
40.1706
40.1706
50
50
53.7845
53.7845
53.7845
53.7845
40.1706
40.1706
50
50
48.2088
48.2088
50
50
37.344
37.344
38.7315
38.7315
46.4818
46.4818
46.4818
46.4818
48.2088
48.2088
46.4818
46.4818
48.2088
48.2088
51.8578
51.8578
48.2088
48.2088
51.8578
51.8578
38.7315
38.7315
44.8166
44.8166
50
50
37.344
37.344
44.8166
44.8166
46.4818
46.4818
44.8166
44.8166
44.8166
44.8166
44.8166
44.8166
43.2111
43.2111
50
50
34.7163
34.7163
41.6631
41.6631
41.6631
41.6631
50
50
43.2111
43.2111
41.6631
41.6631
41.6631
41.6631
40.1706
40.1706
38.7315
38.7315
41.6631
41.6631
38.7315
38.7315
37.344
37.344
36.0062
36.0062
38.7315
38.7315
43.2111
43.2111
37.344
37.344
40.1706
40.1706
34.7163
34.7163
53.7845
53.7845
36.0062
36.0062
37.344
37.344
34.7163
34.7163
33.4726
33.4726
33.4726
33.4726
92.9635
92.9635
86.4222
86.4222
83.3262
83.3262
80.3411
80.3411
77.463
77.463
77.463
77.463
74.6879
74.6879
83.3262
83.3262
80.3411
80.3411
80.3411
80.3411
77.463
77.463
72.0123
72.0123
77.463
77.463
74.6879
74.6879
69.4326
69.4326
72.0123
72.0123
69.4326
69.4326
66.9452
66.9452
77.463
77.463
72.0123
72.0123
69.4326
69.4326
62.2346
62.2346
66.9452
66.9452
66.9452
66.9452
72.0123
72.0123
69.4326
69.4326
64.547
64.547
74.6879
74.6879
64.547
64.547
74.6879
74.6879
66.9452
66.9452
69.4326
69.4326
72.0123
72.0123
62.2346
62.2346
62.2346
62.2346
64.547
64.547
64.547
64.547
62.2346
62.2346
69.4326
69.4326
66.9452
66.9452
66.9452
66.9452
66.9452
66.9452
62.2346
62.2346
57.8555
57.8555
60.0051
60.0051
60.0051
60.0051
60.0051
60.0051
64.547
64.547
74.6879
74.6879
62.2346
62.2346
66.9452
66.9452
62.2346
62.2346
66.9452
66.9452
57.8555
57.8555
60.0051
60.0051
55.7829
55.7829
60.0051
60.0051
60.0051
60.0051
60.0051
60.0051
57.8555
57.8555
62.2346
62.2346
60.0051
60.0051
62.2346
62.2346
57.8555
57.8555
53.7845
53.7845
60.0051
60.0051
55.7829
55.7829
66.9452
66.9452
55.7829
55.7829
55.7829
55.7829
60.0051
60.0051
57.8555
57.8555
57.8555
57.8555
55.7829
55.7829
55.7829
55.7829
57.8555
57.8555
53.7845
53.7845
60.0051
60.0051
51.8578
51.8578
57.8555
57.8555
57.8555
57.8555
57.8555
57.8555
53.7845
53.7845
57.8555
57.8555
62.2346
62.2346
51.8578
51.8578
51.8578
51.8578
64.547
64.547
55.7829
55.7829
55.7829
55.7829
57.8555
57.8555
50
50
60.0051
60.0051
55.7829
55.7829
62.2346
62.2346
51.8578
51.8578
62.2346
62.2346
53.7845
53.7845
51.8578
51.8578
57.8555
57.8555
51.8578
51.8578
55.7829
55.7829
48.2088
48.2088
55.7829
55.7829
51.8578
51.8578
57.8555
57.8555
57.8555
57.8555
48.2088
48.2088
55.7829
55.7829
51.8578
51.8578
57.8555
57.8555
48.2088
48.2088
50
50
51.8578
51.8578
48.2088
48.2088
50
50
55.7829
55.7829
55.7829
55.7829
48.2088
48.2088
53.7845
53.7845
46.4818
46.4818
51.8578
51.8578
51.8578
51.8578
41.6631
41.6631
48.2088
48.2088
50
50
44.8166
44.8166
46.4818
46.4818
43.2111
43.2111
44.8166
44.8166
53.7845
53.7845
48.2088
48.2088
51.8578
51.8578
48.2088
48.2088
55.7829
55.7829
41.6631
41.6631
41.6631
41.6631
51.8578
51.8578
44.8166
44.8166
40.1706
40.1706
46.4818
46.4818
48.2088
48.2088
50
50
50
50
40.1706
40.1706
41.6631
41.6631
51.8578
51.8578
50
50
53.7845
53.7845
51.8578
51.8578
40.1706
40.1706
51.8578
51.8578
44.8166
44.8166
38.7315
38.7315
41.6631
41.6631
36.0062
36.0062
46.4818
46.4818
38.7315
38.7315
40.1706
40.1706
37.344
37.344
46.4818
46.4818
51.8578
51.8578
53.7845
53.7845
50
50
48.2088
48.2088
44.8166
44.8166
43.2111
43.2111
50
50
36.0062
36.0062
36.0062
36.0062
46.4818
46.4818
48.2088
48.2088
33.4726
33.4726
48.2088
48.2088
41.6631
41.6631
41.6631
41.6631
43.2111
43.2111
40.1706
40.1706
46.4818
46.4818
48.2088
48.2088
46.4818
46.4818
37.344
37.344
46.4818
46.4818
36.0062
36.0062
36.0062
36.0062
41.6631
41.6631
38.7315
38.7315
50
50
50
50
40.1706
40.1706
36.0062
36.0062
34.7163
34.7163
32.2735
32.2735
31.1173
31.1173
92.9635
92.9635
89.6332
89.6332
83.3262
83.3262
83.3262
83.3262
80.3411
80.3411
72.0123
72.0123
80.3411
80.3411
74.6879
74.6879
69.4326
69.4326
66.9452
66.9452
74.6879
74.6879
74.6879
74.6879
69.4326
69.4326
66.9452
66.9452
77.463
77.463
64.547
64.547
64.547
64.547
66.9452
66.9452
60.0051
60.0051
69.4326
69.4326
69.4326
69.4326
72.0123
72.0123
66.9452
66.9452
69.4326
69.4326
66.9452
66.9452
66.9452
66.9452
66.9452
66.9452
62.2346
62.2346
64.547
64.547
60.0051
60.0051
62.2346
62.2346
60.0051
60.0051
72.0123
72.0123
66.9452
66.9452
60.0051
60.0051
64.547
64.547
69.4326
69.4326
57.8555
57.8555
66.9452
66.9452
62.2346
62.2346
60.0051
60.0051
62.2346
62.2346
66.9452
66.9452
62.2346
62.2346
55.7829
55.7829
64.547
64.547
60.0051
60.0051
72.0123
72.0123
62.2346
62.2346
64.547
64.547
64.547
64.547
57.8555
57.8555
55.7829
55.7829
55.7829
55.7829
64.547
64.547
57.8555
57.8555
57.8555
57.8555
60.0051
60.0051
55.7829
55.7829
51.8578
51.8578
64.547
64.547
50
50
53.7845
53.7845
57.8555
57.8555
53.7845
53.7845
48.2088
48.2088
57.8555
57.8555
64.547
64.547
53.7845
53.7845
46.4818
46.4818
55.7829
55.7829
51.8578
51.8578
62.2346
62.2346
51.8578
51.8578
50
50
60.0051
60.0051
57.8555
57.8555
55.7829
55.7829
53.7845
53.7845
62.2346
62.2346
55.7829
55.7829
53.7845
53.7845
57.8555
57.8555
48.2088
48.2088
53.7845
53.7845
60.0051
60.0051
53.7845
53.7845
55.7829
55.7829
53.7845
53.7845
50
50
55.7829
55.7829
64.547
64.547
51.8578
51.8578
48.2088
48.2088
62.2346
62.2346
51.8578
51.8578
60.0051
60.0051
50
50
53.7845
53.7845
48.2088
48.2088
46.4818
46.4818
60.0051
60.0051
50
50
53.7845
53.7845
57.8555
57.8555
44.8166
44.8166
57.8555
57.8555
50
50
55.7829
55.7829
53.7845
53.7845
48.2088
48.2088
44.8166
44.8166
53.7845
53.7845
57.8555
57.8555
55.7829
55.7829
51.8578
51.8578
37.344
37.344
55.7829
55.7829
46.4818
46.4818
53.7845
53.7845
53.7845
53.7845
53.7845
53.7845
51.8578
51.8578
53.7845
53.7845
43.2111
43.2111
50
50
51.8578
51.8578
48.2088
48.2088
60.0051
60.0051
48.2088
48.2088
44.8166
44.8166
51.8578
51.8578
46.4818
46.4818
55.7829
55.7829
40.1706
40.1706
48.2088
48.2088
50
50
46.4818
46.4818
46.4818
46.4818
50
50
51.8578
51.8578
50
50
43.2111
43.2111
48.2088
48.2088
43.2111
43.2111
46.4818
46.4818
50
50
48.2088
48.2088
38.7315
38.7315
48.2088
48.2088
48.2088
48.2088
48.2088
48.2088
44.8166
44.8166
37.344
37.344
44.8166
44.8166
43.2111
43.2111
43.2111
43.2111
46.4818
46.4818
37.344
37.344
40.1706
40.1706
41.6631
41.6631
44.8166
44.8166
46.4818
46.4818
44.8166
44.8166
43.2111
43.2111
44.8166
44.8166
43.2111
43.2111
46.4818
46.4818
40.1706
40.1706
40.1706
40.1706
38.7315
38.7315
46.4818
46.4818
40.1706
40.1706
40.1706
40.1706
40.1706
40.1706
36.0062
36.0062
44.8166
44.8166
38.7315
38.7315
34.7163
34.7163
37.344
37.344
33.4726
33.4726
31.1173
31.1173
48.2088
48.2088
36.0062
36.0062
32.2735
32.2735
30.0026
30.0026
86.4222
86.4222
80.3411
80.3411
77.463
77.463
74.6879
74.6879
74.6879
74.6879
72.0123
72.0123
80.3411
80.3411
72.0123
72.0123
77.463
77.463
69.4326
69.4326
72.0123
72.0123
66.9452
66.9452
72.0123
72.0123
69.4326
69.4326
74.6879
74.6879
72.0123
72.0123
74.6879
74.6879
66.9452
66.9452
62.2346
62.2346
69.4326
69.4326
57.8555
57.8555
72.0123
72.0123
69.4326
69.4326
64.547
64.547
69.4326
69.4326
62.2346
62.2346
64.547
64.547
64.547
64.547
62.2346
62.2346
69.4326
69.4326
64.547
64.547
62.2346
62.2346
60.0051
60.0051
57.8555
57.8555
60.0051
60.0051
64.547
64.547
66.9452
66.9452
66.9452
66.9452
57.8555
57.8555
64.547
64.547
62.2346
62.2346
64.547
64.547
60.0051
60.0051
64.547
64.547
62.2346
62.2346
62.2346
62.2346
57.8555
57.8555
57.8555
57.8555
55.7829
55.7829
60.0051
60.0051
53.7845
53.7845
57.8555
57.8555
66.9452
66.9452
64.547
64.547
66.9452
66.9452
57.8555
57.8555
64.547
64.547
57.8555
57.8555
53.7845
53.7845
64.547
64.547
57.8555
57.8555
55.7829
55.7829
51.8578
51.8578
55.7829
55.7829
57.8555
57.8555
55.7829
55.7829
55.7829
55.7829
62.2346
62.2346
62.2346
62.2346
44.8166
44.8166
55.7829
55.7829
53.7845
53.7845
60.0051
60.0051
53.7845
53.7845
62.2346
62.2346
57.8555
57.8555
57.8555
57.8555
53.7845
53.7845
46.4818
46.4818
53.7845
53.7845
100
96.4176
96.4176
89.6332
89.6332
83.3262
83.3262
92.9635
92.9635
80.3411
80.3411
89.6332
89.6332
86.4222
86.4222
83.3262
83.3262
77.463
77.463
83.3262
83.3262
77.463
77.463
80.3411
80.3411
74.6879
74.6879
74.6879
74.6879
72.0123
72.0123
72.0123
72.0123
77.463
77.463
69.4326
69.4326
69.4326
69.4326
74.6879
74.6879
64.547
64.547
72.0123
72.0123
77.463
77.463
64.547
64.547
66.9452
66.9452
69.4326
69.4326
64.547
64.547
69.4326
69.4326
72.0123
72.0123
66.9452
66.9452
62.2346
62.2346
62.2346
62.2346
64.547
64.547
66.9452
66.9452
64.547
64.547
62.2346
62.2346
60.0051
60.0051
69.4326
69.4326
66.9452
66.9452
62.2346
62.2346
62.2346
62.2346
62.2346
62.2346
60.0051
60.0051
60.0051
60.0051
64.547
64.547
57.8555
57.8555
55.7829
55.7829
53.7845
53.7845
57.8555
57.8555
60.0051
60.0051
60.0051
60.0051
57.8555
57.8555
55.7829
55.7829
53.7845
53.7845
57.8555
57.8555
51.8578
51.8578
51.8578
51.8578
51.8578
51.8578
53.7845
53.7845
50
50
55.7829
55.7829
55.7829
55.7829
55.7829
55.7829
53.7845
53.7845
50
50
48.2088
48.2088
46.4818
46.4818
48.2088
48.2088
46.4818
46.4818
53.7845
53.7845
51.8578
51.8578
50
50
48.2088
48.2088
44.8166
44.8166
46.4818
46.4818
46.4818
46.4818
44.8166
44.8166
51.8578
51.8578
50
50
46.4818
46.4818
50
50
44.8166
44.8166
44.8166
44.8166
43.2111
43.2111
48.2088
48.2088
43.2111
43.2111
43.2111
43.2111
41.6631
41.6631
41.6631
41.6631
40.1706
40.1706
40.1706
40.1706
40.1706
40.1706
41.6631
41.6631
38.7315
38.7315
38.7315
38.7315
38.7315
38.7315
37.344
37.344
37.344
37.344
40.1706
40.1706
37.344
37.344
36.0062
36.0062
36.0062
36.0062
38.7315
38.7315
34.7163
34.7163
34.7163
34.7163
36.0062
36.0062
37.344
37.344
92.9635
92.9635
89.6332
89.6332
86.4222
86.4222
80.3411
80.3411
77.463
77.463
74.6879
74.6879
83.3262
83.3262
72.0123
72.0123
86.4222
86.4222
86.4222
86.4222
74.6879
74.6879
72.0123
72.0123
80.3411
80.3411
72.0123
72.0123
74.6879
74.6879
80.3411
80.3411
69.4326
69.4326
69.4326
69.4326
66.9452
66.9452
69.4326
69.4326
74.6879
74.6879
77.463
77.463
72.0123
72.0123
66.9452
66.9452
72.0123
72.0123
74.6879
74.6879
74.6879
74.6879
69.4326
69.4326
72.0123
72.0123
66.9452
66.9452
62.2346
62.2346
64.547
64.547
