# vtk DataFile Version 3.0
Tree
ASCII
DATASET POLYDATA
POINTS 1582 float
162774 225274 273.8
162774 225274 10273.8
141774 225774 23773.8
134774 213034 31773.8
136874 216856 29373.8
138774 208774 53969.8
137596 213785 38720.2
117774 203858 49773.8
138420 210277 49395
156774 197774 66885.8
138668 209225 52597.4
131774 198014 74773.8
120908 203393 50303.8
107774 194006 60773.8
151118 200893 64107.4
151774 195942 80773.8
155077 198710 66052.2
169774 181774 67541.8
113561 197207 59491.8
108774 188042 83773.8
151577 197427 75773.8
169774 184774 92393.8
108735 193926 59979.8
93553.8 181774 59773.8
112269 191912 76759.8
121774 192774 94377.8
166405 183687 66752.2
174058 162774 64773.8
164526 187523 85230.2
177782 172774 82773.8
109823 189203 81669.4
92465.8 179774 80773.8
151715 196387 79273.8
143774 195998 103774
171703 167300 63627.8
171998 154774 52773.8
173351 164132 64430.2
179782 158774 76773.8
171684 179558 83903.8
181774 167074 105774
95624.6 180080 79615.8
81553.8 163774 70773.8
117467 192653 90787
114774 194062 112774
175281 162524 68133
179186 141774 68773.8
93413.4 179865 80426.2
84773.8 174774 93573.8
179330 169045 99309
183774 157078 101774
115582 193639 106178
128774 195998 116774
178771 158407 74869.4
183814 146774 84773.8
109089 188390 83142.6
99773.8 187222 97773.8
102429 188207 95923.4
100774 192002 112774
147715 196123 100134
148774 195998 118774
148915 196202 93875.8
161942 191774 107774
179268 145894 71088.6
183942 132774 77773.8
179210 143010 69468.2
176774 131322 55773.8
182441 160668 101034
183998 149774 118774
85478.6 164792 74163
79489.8 148774 72773.8
183453 154707 113965
183998 157774 128774
115186 194398 112350
114774 198006 133774
85986.6 174329 91104.2
76773.8 161774 101290
85137.8 174640 92833
84773.8 181774 108442
146948 196035 115841
137774 196022 133774
177712 132581 59164.6
178774 117774 53581.8
160931 190951 104167
173218 183774 110774
183807 149820 118211
183998 137774 126774
177055 131699 56791
177974 128774 42773.8
82045.8 150819 71785
81773.8 137774 67653.8
79537.8 165540 98234.2
77485.8 146774 93773.8
77603 162904 100373
78325.8 156774 111774
112406 196574 131322
108774 197774 146810
85676.6 180331 106900
87581.8 184774 120774
148226 196009 117894
163774 191230 129774
114063 197576 133038
126774 199782 142774
125064 198905 141685
139074 197774 153774
181041 167665 103834
179890 172774 119774
183651 140310 123077
181998 125774 121774
183894 138535 125665
179818 126774 136774
182345 134065 129886
180070 138774 147774
181427 138989 140389
182774 154774 149970
180061 137887 145719
175842 131774 155774
82687.4 138913 68085.8
87773.8 120750 62773.8
79264.6 148299 93801
81493.8 130774 88773.8
158052 192979 127608
161774 191774 144002
78109 158613 108353
79773.8 141774 109886
85612.2 131001 62803.8
88773.8 126226 53773.8
109528 195298 141685
103006 183774 157774
87010.2 183441 116612
87601.8 170774 135774
78260.6 157325 110748
82353.8 148774 121774
135109 198003 152470
137774 197230 167774
86795.4 175101 126554
83657.8 162774 128774
180576 128961 134707
175882 114774 131774
87971.4 184153 119998
92773.8 185958 132774
108433 191693 149401
114282 191774 165774
162284 190938 128389
173978 182774 127774
87108.6 124041 64186.6
89661.8 112774 72773.8
181344 126446 121631
177774 111562 119774
104019 184668 155653
99773.8 174890 158774
177108 133607 152757
169298 118774 151774
160657 192135 139083
150774 193998 148774
181891 149109 148549
179834 153774 163774
112527 191749 160862
122266 198774 163774
176221 132324 154869
166434 125774 165774
88335.4 126014 56094.2
93545.8 112774 47773.8
183473 159159 126655
183230 163774 136774
81911 133406 90743.8
88773.8 115774 93149.8
138881 196346 164557
144774 193190 173774
82340.6 145343 70083.4
85529.8 141774 53773.8
113755 191767 164300
113774 182774 174866
84410.6 127017 93077.8
86529.8 121774 102774
177586 112673 119099
174042 102774 115774
88691.8 117055 69510.6
94317.8 105774 64773.8
80552.6 145847 111014
89497.8 128774 121774
171333 121659 150663
168774 110774 141946
87607.4 170748 133527
89657.8 159774 142774
175739 116234 131873
170006 103774 128774
106755 189023 151777
96773.8 181774 147326
169412 127086 161397
163238 118774 161774
89042.6 163066 140000
94773.8 165774 151970
167062 126758 165229
161774 128774 175326
101277 176394 158911
102326 166774 165774
171726 107512 129703
162774 102218 137774
175956 131939 155502
171774 139578 171774
113768 185472 171696
108774 173774 171990
174505 104187 115832
170514 93773.8 109774
173183 139223 168237
173774 151774 177890
86884.2 122488 99304.6
95569.8 110774 107774
170470 185223 127958
177774 177994 141774
173644 150205 175407
173986 164774 178774
153739 193439 145867
155890 190774 158774
88575.8 117484 93357.8
95773.8 106306 94773.8
182339 154471 149725
181874 166774 151774
89489.8 118974 101845
90773.8 119774 113162
174181 103198 115791
167306 96773.8 121774
94045 106304 65179.8
99773.8 94773.8 60809.8
95670.2 107439 93873.8
101574 100774 92773.8
88737.4 132837 121691
97005.8 123774 133774
162626 128913 174460
158774 131574 183774
103093 167332 165258
106266 157774 171774
170744 95145.8 109522
166774 86773.8 101950
110272 177283 171902
113774 165774 183990
171905 139739 171367
166774 142226 183774
161439 191882 142526
171158 185774 149774
173735 151303 177145
168774 154774 189890
143006 194137 171009
152774 188086 170774
170262 153733 186066
167774 168774 190962
181354 164712 151781
177262 175774 155774
100848 101664 92231
107774 94277.8 86773.8
168387 98358.6 121279
161774 95705.8 129774
95356.6 111728 107125
105774 101774 114574
172173 98581.4 111919
177186 97773.8 95773.8
99315.4 107945 109956
101998 109774 122774
167965 89285.4 104221
171966 88773.8 92773.8
98748.6 97969.4 63339
106774 88773.8 67949.8
102286 105107 112080
107590 96773.8 105774
94499.4 127786 131252
99773.8 129774 145970
91849 130110 126854
96773.8 118774 125962
112688 167061 180712
112774 152774 183890
104359 91152.2 65471.4
109590 82773.8 61773.8
167131 87527.4 102631
156774 79673.8 97773.8
112297 156935 181641
109586 146774 175774
167186 166005 189754
158774 178006 191774
177526 173627 155676
171258 181774 162774
102147 108434 119178
109774 104774 129138
149843 189901 170844
153774 184006 180774
99302.2 96243.8 61973
98317.8 97773.8 50773.8
169243 91981.4 106659
158774 83761.8 110774
98191.4 129177 141555
97681.8 141774 151774
170445 88968.2 97123.8
163774 81549.8 87773.8
110616 150635 178003
114774 140222 181774
109387 84055.8 62912.2
118226 75773.8 62773.8
178674 170953 154507
175774 172774 168898
112441 155686 182316
116774 155774 191954
171705 88679.8 92964.2
174774 87505.8 80773.8
170947 180659 161963
164774 184774 165962
97108.2 124058 133311
104002 115774 136774
173608 87951.8 85406.2
168774 80357.8 79773.8
109013 105945 128256
115774 104774 137370
109546 105125 128873
117774 97701.8 127774
110467 147232 176389
111538 133774 170774
89589.4 160176 141417
91761.8 148774 144774
110874 142118 174255
104774 139774 163322
113527 143346 180643
122326 140774 195774
114878 140742 181411
120774 130774 183946
151966 186718 176206
162774 182022 175774
113949 105650 135993
115774 108774 145114
170079 81454.6 79894.6
168774 73545.8 69773.8
115226 105037 136957
122774 98373.8 135774
116672 98596.2 126978
125774 89773.8 119970
114642 106837 139459
123774 103538 144774
91177 150593 143184
91773.8 139774 139890
115098 108936 143998
113774 114774 151282
122765 104858 144907
129418 103774 149774
125829 90720.6 120757
133774 85593.8 116774
128213 89182.6 119562
127774 85553.8 109774
99299 129595 144645
106774 122774 149978
120329 105451 143273
123586 109774 155774
89637.4 159895 142367
94773.8 154774 151890
104718 125441 149507
110774 124774 159946
128732 86004.2 111609
133774 81773.8 104002
123082 93083.4 122623
134774 89773.8 128794
93884.6 156717 150422
98329.8 158774 159774
131729 83225.4 105512
131774 81565.8 95773.8
121996 99808.6 136395
131774 95773.8 137926
122173 109619 153239
119774 117002 161774
120841 115397 160745
122774 119774 170886
123618 109962 155424
129774 111774 163962
137090 215935 32177.8
143774 211986 34773.8
134725 214543 30969.8
126774 209890 34773.8
141769 213170 33995
146774 209966 47773.8
129795 211658 33328.2
129774 207774 53889.8
128379 207651 50042.6
124774 204006 57773.8
127297 210283 34901
117774 205250 41773.8
138742 208909 53558.2
141954 204774 62773.8
124527 203987 57012.2
119774 199774 63889.8
118714 203718 49933
110774 199774 50809.8
131748 200705 68331.4
125774 198014 70773.8
141716 204789 62064.6
144774 200102 70773.8
156265 198055 66635.8
161266 191774 74773.8
132327 198567 73761.4
135774 196774 79965.8
126827 198287 70751.8
121774 194774 75325.8
160755 192630 72576.6
167258 185774 74773.8
133637 197885 76119
128774 194098 82773.8
108062 193982 60535.8
105774 188518 73773.8
128930 195219 80988.2
123774 193774 84001.8
135866 197054 79572.6
141774 195998 86773.8
105961 190920 66338.2
98773.8 185774 68885.8
138583 196568 82885
134774 194070 91773.8
168368 181922 67808.2
173930 174774 72773.8
97655.4 184915 60809.4
93573.8 180774 66773.8
172546 175919 71013
174774 169170 69773.8
136667 195214 89502.6
138774 195998 97773.8
169228 184536 91492.6
175994 177774 99773.8
93833 180912 65443.4
87553.8 173774 68773.8
144033 196041 102640
135774 195998 104774
173846 163181 64670.6
175774 154774 62473.8
176448 173765 83639
180014 166774 86773.8
107682 188784 89466.6
109774 189954 94773.8
120342 192893 94149
124774 194002 103774
92750.2 179801 80669.4
84773.8 171974 84773.8
138912 196014 103963
136774 195998 112774
171818 156021 53401.4
171774 149094 46773.8
181373 166961 105329
181998 163774 110774
85840.2 172266 82835.4
80285.8 165774 83773.8
104425 188426 93469.8
95773.8 182774 92221.8
124733 195125 109913
130774 195998 109774
103528 190186 103285
107774 192022 107774
137738 196003 111914
137774 195998 119774
179193 142145 68982.2
180070 133774 68773.8
179144 167331 86359.8
182002 158774 89773.8
183265 157038 118204
182074 162774 119774
82341.4 156390 70140.2
79725.8 151774 65773.8
151756 196075 80323.8
[...]
CELL_DATA 1581
SCALARS radius float
LOOKUP_TABLE default
100
100
100
100
96.4176
96.4176
89.6332
89.6332
86.4222
86.4222
83.3262
83.3262
86.4222
86.4222
83.3262
83.3262
80.3411
80.3411
83.3262
83.3262
80.3411
80.3411
80.3411
80.3411
80.3411
80.3411
77.463
77.463
77.463
77.463
77.463
77.463
77.463
77.463
72.0123
72.0123
69.4326
69.4326
74.6879
74.6879
74.6879
74.6879
77.463
77.463
66.9452
66.9452
72.0123
72.0123
72.0123
72.0123
74.6879
74.6879
64.547
64.547
74.6879
74.6879
66.9452
66.9452
72.0123
72.0123
74.6879
74.6879
64.547
64.547
62.2346
62.2346
69.4326
69.4326
72.0123
72.0123
66.9452
66.9452
72.0123
72.0123
69.4326
69.4326
66.9452
66.9452
69.4326
69.4326
60.0051
60.0051
69.4326
69.4326
64.547
64.547
57.8555
57.8555
66.9452
66.9452
66.9452
66.9452
64.547
64.547
69.4326
69.4326
62.2346
62.2346
66.9452
66.9452
66.9452
66.9452
64.547
64.547
69.4326
69.4326
62.2346
62.2346
60.0051
60.0051
57.8555
57.8555
55.7829
55.7829
53.7845
53.7845
62.2346
62.2346
64.547
64.547
64.547
64.547
62.2346
62.2346
60.0051
60.0051
64.547
64.547
60.0051
60.0051
60.0051
60.0051
60.0051
60.0051
53.7845
53.7845
51.8578
51.8578
55.7829
55.7829
62.2346
62.2346
62.2346
62.2346
55.7829
55.7829
57.8555
57.8555
53.7845
53.7845
51.8578
51.8578
62.2346
62.2346
53.7845
53.7845
60.0051
60.0051
50
50
57.8555
57.8555
62.2346
62.2346
62.2346
62.2346
57.8555
57.8555
64.547
64.547
57.8555
57.8555
60.0051
60.0051
55.7829
55.7829
53.7845
53.7845
60.0051
60.0051
48.2088
48.2088
51.8578
51.8578
46.4818
46.4818
60.0051
60.0051
48.2088
48.2088
50
50
46.4818
46.4818
51.8578
51.8578
43.2111
43.2111
48.2088
48.2088
55.7829
55.7829
51.8578
51.8578
44.8166
44.8166
57.8555
57.8555
57.8555
57.8555
43.2111
43.2111
60.0051
60.0051
57.8555
57.8555
50
50
55.7829
55.7829
50
50
51.8578
51.8578
51.8578
51.8578
55.7829
55.7829
43.2111
43.2111
48.2088
48.2088
48.2088
48.2088
53.7845
53.7845
43.2111
43.2111
60.0051
60.0051
41.6631
41.6631
53.7845
53.7845
40.1706
40.1706
48.2088
48.2088
48.2088
48.2088
48.2088
48.2088
53.7845
53.7845
50
50
51.8578
51.8578
44.8166
44.8166
50
50
50
50
51.8578
51.8578
53.7845
53.7845
51.8578
51.8578
48.2088
48.2088
43.2111
43.2111
50
50
37.344
37.344
44.8166
44.8166
50
50
51.8578
51.8578
48.2088
48.2088
46.4818
46.4818
48.2088
48.2088
43.2111
43.2111
48.2088
48.2088
46.4818
46.4818
46.4818
46.4818
48.2088
48.2088
41.6631
41.6631
41.6631
41.6631
50
50
40.1706
40.1706
46.4818
46.4818
44.8166
44.8166
46.4818
46.4818
48.2088
48.2088
44.8166
44.8166
46.4818
46.4818
43.2111
43.2111
50
50
44.8166
44.8166
38.7315
38.7315
43.2111
43.2111
41.6631
41.6631
41.6631
41.6631
46.4818
46.4818
40.1706
40.1706
38.7315
38.7315
37.344
37.344
36.0062
36.0062
46.4818
46.4818
40.1706
40.1706
46.4818
46.4818
44.8166
44.8166
33.4726
33.4726
38.7315
38.7315
44.8166
44.8166
32.2735
32.2735
41.6631
41.6631
38.7315
38.7315
37.344
37.344
37.344
37.344
92.9635
92.9635
92.9635
92.9635
89.6332
89.6332
86.4222
86.4222
77.463
77.463
80.3411
80.3411
80.3411
80.3411
74.6879
74.6879
83.3262
83.3262
77.463
77.463
74.6879
74.6879
77.463
77.463
74.6879
74.6879
74.6879
74.6879
74.6879
74.6879
72.0123
72.0123
77.463
77.463
69.4326
69.4326
69.4326
69.4326
74.6879
74.6879
66.9452
66.9452
74.6879
74.6879
77.463
77.463
72.0123
72.0123
64.547
64.547
72.0123
72.0123
74.6879
74.6879
69.4326
69.4326
66.9452
66.9452
72.0123
72.0123
72.0123
72.0123
74.6879
74.6879
69.4326
69.4326
66.9452
66.9452
66.9452
66.9452
66.9452
66.9452
64.547
64.547
69.4326
69.4326
72.0123
72.0123
64.547
64.547
62.2346
62.2346
60.0051
60.0051
64.547
64.547
64.547
64.547
69.4326
69.4326
74.6879
74.6879
64.547
64.547
60.0051
60.0051
69.4326
69.4326
64.547
64.547
69.4326
69.4326
66.9452
66.9452
64.547
64.547
66.9452
66.9452
64.547
64.547
62.2346
62.2346
57.8555
57.8555
60.0051
60.0051
57.8555
57.8555
72.0123
72.0123
60.0051
60.0051
64.547
64.547
69.4326
69.4326
64.547
64.547
62.2346
62.2346
57.8555
57.8555
55.7829
55.7829
62.2346
62.2346
64.547
64.547
64.547
64.547
53.7845
53.7845
66.9452
66.9452
60.0051
60.0051
60.0051
60.0051
62.2346
62.2346
53.7845
53.7845
66.9452
66.9452
57.8555
57.8555
62.2346
62.2346
55.7829
55.7829
60.0051
60.0051
53.7845
53.7845
57.8555
57.8555
57.8555
57.8555
55.7829
55.7829
66.9452
66.9452
60.0051
60.0051
51.8578
51.8578
60.0051
60.0051
57.8555
57.8555
60.0051
60.0051
62.2346
62.2346
53.7845
53.7845
64.547
64.547
55.7829
55.7829
50
50
51.8578
51.8578
51.8578
51.8578
57.8555
57.8555
55.7829
55.7829
60.0051
60.0051
48.2088
48.2088
57.8555
57.8555
51.8578
51.8578
51.8578
51.8578
51.8578
51.8578
51.8578
51.8578
50
50
60.0051
60.0051
55.7829
55.7829
55.7829
55.7829
57.8555
57.8555
53.7845
53.7845
51.8578
51.8578
46.4818
46.4818
50
50
57.8555
57.8555
48.2088
48.2088
55.7829
55.7829
44.8166
44.8166
50
50
60.0051
60.0051
41.6631
41.6631
55.7829
55.7829
55.7829
55.7829
53.7845
53.7845
46.4818
46.4818
53.7845
53.7845
51.8578
51.8578
44.8166
44.8166
55.7829
55.7829
57.8555
57.8555
46.4818
46.4818
44.8166
44.8166
46.4818
46.4818
41.6631
41.6631
62.2346
62.2346
50
50
46.4818
46.4818
55.7829
55.7829
38.7315
38.7315
57.8555
57.8555
40.1706
40.1706
51.8578
51.8578
53.7845
53.7845
46.4818
46.4818
44.8166
44.8166
44.8166
44.8166
57.8555
57.8555
46.4818
46.4818
38.7315
38.7315
53.7845
53.7845
46.4818
46.4818
44.8166
44.8166
43.2111
43.2111
36.0062
36.0062
40.1706
40.1706
44.8166
44.8166
44.8166
44.8166
41.6631
41.6631
40.1706
40.1706
34.7163
34.7163
33.4726
33.4726
48.2088
48.2088
44.8166
44.8166
48.2088
48.2088
44.8166
44.8166
43.2111
43.2111
41.6631
41.6631
46.4818
46.4818
41.6631
41.6631
51.8578
51.8578
43.2111
43.2111
44.8166
44.8166
48.2088
48.2088
37.344
37.344
43.2111
43.2111
41.6631
41.6631
46.4818
46.4818
43.2111
43.2111
50
50
41.6631
41.6631
36.0062
36.0062
38.7315
38.7315
43.2111
43.2111
37.344
37.344
34.7163
34.7163
33.4726
33.4726
43.2111
43.2111
41.6631
41.6631
31.1173
31.1173
40.1706
40.1706
37.344
37.344
36.0062
36.0062
36.0062
36.0062
89.6332
89.6332
80.3411
80.3411
86.4222
86.4222
83.3262
83.3262
80.3411
80.3411
80.3411
80.3411
77.463
77.463
72.0123
72.0123
80.3411
80.3411
77.463
77.463
69.4326
69.4326
69.4326
69.4326
74.6879
74.6879
72.0123
72.0123
69.4326
69.4326
66.9452
66.9452
69.4326
69.4326
74.6879
74.6879
66.9452
66.9452
72.0123
72.0123
66.9452
66.9452
74.6879
74.6879
69.4326
69.4326
64.547
64.547
69.4326
69.4326
72.0123
72.0123
69.4326
69.4326
74.6879
74.6879
64.547
64.547
64.547
64.547
66.9452
66.9452
62.2346
62.2346
62.2346
62.2346
64.547
64.547
64.547
64.547
60.0051
60.0051
62.2346
62.2346
62.2346
62.2346
60.0051
60.0051
62.2346
62.2346
64.547
64.547
62.2346
62.2346
57.8555
57.8555
62.2346
62.2346
60.0051
60.0051
60.0051
60.0051
55.7829
55.7829
62.2346
62.2346
62.2346
62.2346
60.0051
60.0051
62.2346
62.2346
66.9452
66.9452
60.0051
60.0051
60.0051
60.0051
62.2346
62.2346
57.8555
57.8555
64.547
64.547
57.8555
57.8555
62.2346
62.2346
57.8555
57.8555
57.8555
57.8555
55.7829
55.7829
60.0051
60.0051
57.8555
57.8555
51.8578
51.8578
64.547
64.547
64.547
64.547
55.7829
55.7829
62.2346
62.2346
60.0051
60.0051
62.2346
62.2346
60.0051
60.0051
55.7829
55.7829
53.7845
53.7845
57.8555
57.8555
53.7845
53.7845
57.8555
57.8555
55.7829
55.7829
53.7845
53.7845
60.0051
60.0051
55.7829
55.7829
50
50
55.7829
55.7829
53.7845
53.7845
50
50
55.7829
55.7829
55.7829
55.7829
48.2088
48.2088
55.7829
55.7829
60.0051
60.0051
51.8578
51.8578
53.7845
53.7845
55.7829
55.7829
48.2088
48.2088
46.4818
46.4818
53.7845
53.7845
50
50
53.7845
53.7845
55.7829
55.7829
44.8166
44.8166
50
50
43.2111
43.2111
50
50
40.1706
40.1706
53.7845
53.7845
53.7845
53.7845
53.7845
53.7845
50
50
50
50
53.7845
53.7845
46.4818
46.4818
57.8555
57.8555
46.4818
46.4818
57.8555
57.8555
55.7829
55.7829
38.7315
38.7315
55.7829
55.7829
44.8166
44.8166
48.2088
48.2088
50
50
53.7845
53.7845
50
50
44.8166
44.8166
51.8578
51.8578
44.8166
44.8166
50
50
55.7829
55.7829
44.8166
44.8166
40.1706
40.1706
48.2088
48.2088
60.0051
60.0051
41.6631
41.6631
50
50
51.8578
51.8578
53.7845
53.7845
51.8578
51.8578
41.6631
41.6631
41.6631
41.6631
50
50
37.344
37.344
43.2111
43.2111
38.7315
38.7315
46.4818
46.4818
43.2111
43.2111
51.8578
51.8578
46.4818
46.4818
43.2111
43.2111
44.8166
44.8166
46.4818
46.4818
44.8166
44.8166
40.1706
40.1706
44.8166
44.8166
46.4818
46.4818
43.2111
43.2111
44.8166
44.8166
44.8166
44.8166
41.6631
41.6631
43.2111
43.2111
50
50
40.1706
40.1706
38.7315
38.7315
46.4818
46.4818
43.2111
43.2111
41.6631
41.6631
40.1706
40.1706
43.2111
43.2111
41.6631
41.6631
37.344
37.344
40.1706
40.1706
44.8166
44.8166
40.1706
40.1706
34.7163
34.7163
41.6631
41.6631
43.2111
43.2111
32.2735
32.2735
43.2111
43.2111
32.2735
32.2735
38.7315
38.7315
40.1706
40.1706
31.1173
31.1173
30.0026
30.0026
36.0062
36.0062
34.7163
34.7163
83.3262
83.3262
83.3262
83.3262
77.463
77.463
74.6879
74.6879
80.3411
80.3411
77.463
77.463
77.463
77.463
74.6879
74.6879
72.0123
72.0123
69.4326
69.4326
72.0123
72.0123
72.0123
72.0123
72.0123
72.0123
72.0123
72.0123
72.0123
72.0123
69.4326
69.4326
66.9452
66.9452
69.4326
69.4326
64.547
64.547
64.547
64.547
72.0123
72.0123
72.0123
72.0123
69.4326
69.4326
66.9452
66.9452
72.0123
72.0123
66.9452
66.9452
66.9452
66.9452
69.4326
69.4326
66.9452
66.9452
57.8555
57.8555
69.4326
69.4326
64.547
64.547
66.9452
66.9452
62.2346
62.2346
62.2346
62.2346
60.0051
60.0051
62.2346
62.2346
64.547
64.547
57.8555
57.8555
60.0051
60.0051
60.0051
60.0051
66.9452
66.9452
66.9452
66.9452
62.2346
62.2346
60.0051
60.0051
55.7829
55.7829
60.0051
60.0051
60.0051
60.0051
62.2346
62.2346
53.7845
53.7845
57.8555
57.8555
62.2346
62.2346
64.547
64.547
69.4326
69.4326
55.7829
55.7829
60.0051
60.0051
57.8555
57.8555
64.547
64.547
53.7845
53.7845
55.7829
55.7829
51.8578
51.8578
60.0051
60.0051
62.2346
62.2346
51.8578
51.8578
57.8555
57.8555
55.7829
55.7829
51.8578
51.8578
62.2346
62.2346
51.8578
51.8578
55.7829
55.7829
57.8555
57.8555
53.7845
53.7845
50
50
51.8578
51.8578
48.2088
48.2088
55.7829
55.7829
57.8555
57.8555
57.8555
57.8555
48.2088
48.2088
62.2346
62.2346
55.7829
55.7829
50
50
53.7845
53.7845
55.7829
55.7829
48.2088
48.2088
62.2346
62.2346
53.7845
53.7845
48.2088
48.2088
50
50
100
96.4176
96.4176
89.6332
89.6332
83.3262
83.3262
92.9635
92.9635
77.463
77.463
89.6332
89.6332
74.6879
74.6879
86.4222
86.4222
72.0123
72.0123
69.4326
69.4326
83.3262
83.3262
66.9452
66.9452
69.4326
69.4326
80.3411
80.3411
66.9452
66.9452
77.463
77.463
64.547
64.547
64.547
64.547
60.0051
60.0051
74.6879
74.6879
62.2346
62.2346
72.0123
72.0123
69.4326
69.4326
74.6879
74.6879
66.9452
66.9452
69.4326
69.4326
66.9452
66.9452
60.0051
60.0051
66.9452
66.9452
64.547
64.547
64.547
64.547
64.547
64.547
72.0123
72.0123
64.547
64.547
62.2346
62.2346
60.0051
60.0051
57.8555
57.8555
55.7829
55.7829
69.4326
69.4326
62.2346
62.2346
60.0051
60.0051
64.547
64.547
60.0051
60.0051
57.8555
57.8555
62.2346
62.2346
62.2346
62.2346
53.7845
53.7845
51.8578
51.8578
57.8555
57.8555
53.7845
53.7845
57.8555
57.8555
55.7829
55.7829
55.7829
55.7829
51.8578
51.8578
55.7829
55.7829
53.7845
53.7845
53.7845
53.7845
51.8578
51.8578
50
50
50
50
50
50
51.8578
51.8578
48.2088
48.2088
50
50
51.8578
51.8578
53.7845
53.7845
53.7845
53.7845
50
50
48.2088
48.2088
48.2088
48.2088
51.8578
51.8578
46.4818
46.4818
48.2088
48.2088
46.4818
46.4818
48.2088
48.2088
50
50
48.2088
48.2088
43.2111
43.2111
46.4818
46.4818
46.4818
46.4818
46.4818
46.4818
44.8166
44.8166
44.8166
44.8166
44.8166
44.8166
44.8166
44.8166
44.8166
44.8166
43.2111
43.2111
43.2111
43.2111
43.2111
43.2111
41.6631
41.6631
40.1706
40.1706
38.7315
38.7315
43.2111
43.2111
41.6631
41.6631
40.1706
40.1706
38.7315
38.7315
38.7315
38.7315
41.6631
41.6631
37.344
37.344
38.7315
38.7315
37.344
37.344
36.0062
36.0062
36.0062
36.0062
40.1706
40.1706
36.0062
36.0062
33.4726
33.4726
34.7163
34.7163
34.7163
34.7163
38.7315
38.7315
34.7163
34.7163
92.9635
92.9635
86.4222
86.4222
86.4222
86.4222
83.3262
83.3262
80.3411
80.3411
74.6879
74.6879
72.0123
72.0123
86.4222
86.4222
69.4326
69.4326
83.3262
83.3262
80.3411
80.3411
72.0123
72.0123
83.3262
83.3262
80.3411
80.3411
66.9452
66.9452
77.463
77.463
74.6879
74.6879
66.9452
66.9452
77.463
77.463
74.6879
74.6879
74.6879
74.6879
64.547
64.547
72.0123
72.0123
64.547
64.547
62.2346
62.2346
62.2346
62.2346
60.0051
60.0051
60.0051
60.0051
72.0123
72.0123
