# vtk DataFile Version 3.0
Tree
ASCII
DATASET POLYDATA
POINTS 1582 float
162774 225274 273.8
162774 225274 10273.8
141774 225774 23773.8
133774 213814 30497.8
136174 217402 28480.6
144774 208774 53889.8
139442 214123 38136.2
119774 202010 56773.8
144594 208881 51580.2
153774 199222 67773.8
125924 204687 53870.6
125774 197774 71981.8
125855 201507 62201.8
111530 193774 67773.8
153255 199875 64381.4
167774 185258 74773.8
153618 199418 66756.2
146774 196002 83773.8
113192 194431 65569.4
95773.8 183554 62773.8
112028 193971 67112.6
108774 188002 87773.8
163532 188350 70016.6
173774 170802 66773.8
166501 186185 73346.6
175870 178774 97773.8
146724 197094 82808.2
138774 195998 99773.8
98827.4 183793 64788.2
86773.8 171978 66773.8
170061 183369 82629
179986 165774 83773.8
171305 172736 67089.4
175890 150774 62773.8
110011 190270 79922.6
89573.8 176774 84773.8
109145 188682 85418.6
115774 194002 109774
173781 160876 64759
170006 153774 46773.8
141598 196349 98544.6
139774 195998 114774
174695 178142 93593
182002 162774 105774
143956 196691 91305.8
155774 193982 103774
89017 173179 66797.8
79549.8 157774 70773.8
174920 155421 63687
181982 144774 77773.8
175599 152168 63047.8
179774 131998 63773.8
92927 178827 87599
79553.8 169774 95773.8
113851 194043 108908
115774 197774 124530
141757 196110 112941
144774 195998 126774
146759 196329 83484.2
159774 191230 90773.8
177902 168324 85927.4
183886 154774 92773.8
180223 164612 105516
183998 151774 118774
98052.2 182260 85295.8
89593.8 184774 105774
152329 194824 102087
153958 194774 115774
82334.6 162606 71467
75773.8 153774 85665.8
80385.4 159223 70981.8
81541.8 143774 66773.8
143869 196031 122624
135890 196774 132774
175517 178584 96519.4
171774 185254 111774
178564 135732 62317.8
179182 119774 54773.8
178620 130169 57612.6
177774 126774 43257.8
182286 156193 90925.4
183998 138774 92773.8
182979 153280 115334
183998 137774 119774
183692 152226 117742
183998 151774 135774
78369.4 153800 83112.6
77545.8 143774 92773.8
78037.4 147563 91212.2
78997.8 145774 105774
183692 142426 118442
181998 134774 136774
114121 196468 122181
108774 197774 146810
85311 173807 94498.6
79601.8 170774 111774
91539 183004 104993
86773.8 182774 121954
154795 194367 114179
163082 191774 130774
82236.2 145194 67617
85673.8 126774 63773.8
140503 196459 130537
139774 197230 153774
114029 197315 131854
123774 199998 143774
178565 168671 101939
179994 171774 119774
183585 138094 119761
181986 125774 123774
114079 196858 126631
98305.8 192774 135774
77693.4 144911 92305.4
81537.8 131774 82773.8
181357 136662 135397
177774 132774 152806
181806 135340 136361
177930 122774 136774
109565 196250 144027
104290 187774 155774
183340 151638 135043
181998 150774 153774
85716.6 129762 63296.2
88773.8 121658 58773.8
86878.6 126683 61577.8
88361.8 117774 67773.8
79020.2 145140 101097
81557.8 136774 108774
177096 132058 148626
171258 125774 157774
88663.8 181314 118092
88361.8 171774 136774
80489 135392 87089.8
83657.8 124774 89773.8
107138 192351 149430
114774 193330 163774
84672.6 134391 64592.6
87773.8 130774 50653.8
178877 172364 115939
174774 181974 126774
80796.6 139284 106471
83549.8 143774 121774
137515 197695 150258
130874 199774 167774
88452.6 174636 131169
85549.8 160774 132774
181688 127105 122270
176774 111522 120774
104987 187890 154937
103774 179774 162034
88635 122313 58635
92521.8 113774 50773.8
141134 196448 138415
150774 193998 148774
88959 118385 66631
92189.8 109774 70773.8
132866 199150 162519
141082 195774 174774
89801 119751 56276.6
93553.8 107774 60773.8
183474 151861 128469
182062 164774 135774
81803.4 137275 108535
86521.8 129774 116774
177845 124627 137362
169846 111774 141774
88389 172633 135093
95553.8 175774 149774
178001 114785 119918
176066 104774 111774
181797 151847 150957
177978 156774 169774
104138 182209 159905
113774 181774 175218
177142 112501 120517
169914 104774 130774
83912.2 125821 89469
91585.8 111774 92773.8
103883 180504 161395
99509.8 166774 159774
172253 128113 156450
163774 126774 171190
86090.2 164785 130952
82153.8 154774 123774
171557 126476 157377
163882 118774 160774
83774.6 125255 89633.8
87773.8 120510 105774
135377 198365 155898
122774 199998 157774
174094 129612 153477
172774 138774 167958
176547 178302 124801
177182 179774 139774
89206.2 116655 93157
93773.8 111522 103774
162732 191266 129741
167970 188774 139774
178447 154604 165533
173966 150774 175774
110112 181939 169399
110774 170774 176030
175745 106077 113973
170042 94773.8 111774
177625 156821 169070
174014 163774 177774
86219 131379 116229
93457.8 126774 128774
182545 160535 135037
181986 166774 148774
92038.2 113472 99739.4
97773.8 104774 99129.8
148311 194348 147830
151774 191774 162010
96053 107383 99312.6
98289.8 103774 90773.8
174034 102686 113313
168774 97773.8 121138
94037.4 108527 60454.6
99569.8 96773.8 64773.8
165367 128664 169717
159774 131994 182774
100822 170893 160260
104774 157774 169970
174712 150714 172609
168090 140774 178774
167778 188387 139326
171774 185258 146774
174419 162317 176824
169946 166774 187774
171878 98413.4 112482
173030 93773.8 102774
93917.4 111836 103579
100130 107774 114774
170593 95865.8 111986
163774 90773.8 117334
86431 130255 116611
93557.8 118774 118774
169296 187198 142156
162774 189774 154802
174189 150756 174825
167930 152774 190774
92843.8 127687 127839
99537.8 124774 139774
171467 184905 145768
177190 176774 153774
97618.6 104857 93335.4
106774 95573.8 90773.8
169354 98960.2 120258
162774 96773.8 129946
99473.8 98294.6 62831.8
105550 88773.8 62773.8
170207 95101.4 111837
161774 84125.8 104774
104547 161316 168748
110774 157774 179970
170821 150457 182220
165774 143578 187774
150946 191321 160766
152774 187214 173774
98528.6 108261 109727
107774 98773.8 113106
172870 94418.6 103111
173774 90773.8 92881.8
97529.4 125648 136193
98773.8 132774 145962
170009 166830 185470
161774 175774 192434
108407 159120 175705
110358 147774 177774
103962 98151 90130.2
109578 90773.8 79773.8
162794 86301.8 104027
156774 79637.8 96773.8
174099 181164 149451
171314 181774 161774
100523 107714 114020
108774 105574 127774
173430 92158.6 96768.6
164774 83493.8 92773.8
96973 103001 61738.2
100318 93773.8 50773.8
162449 174109 189461
154774 180050 189774
173766 90949.4 93185.8
174774 87773.8 83113.8
105374 90084.6 63349.4
116010 79773.8 66773.8
95749 126423 133019
101006 117774 133774
110456 157653 179653
115774 152774 190802
97884.6 131820 142937
95533.8 143774 148774
172372 181542 157091
176774 171958 164774
110627 148605 177112
113550 137774 177774
106866 105371 122868
115774 98773.8 127118
171049 181888 161255
166774 183170 169774
96803.4 137319 145622
101774 139774 158034
166271 85272.2 92732.6
158774 79485.8 84773.8
175453 174833 162469
172090 174774 172774
111504 145355 177311
117706 140774 188774
108933 105407 127064
115774 105002 137774
174011 87651 85085.8
171266 80773.8 77773.8
113101 100753 125843
118774 93773.8 120890
170958 81790.6 79215.4
163774 74773.8 73969.8
112936 140048 177635
110774 131774 167326
96219.4 140288 147072
89773.8 148774 140802
113366 138456 177732
120774 130310 183774
101701 139745 157616
105774 141774 167182
113495 137979 177761
117510 128774 174774
117161 142151 187421
125774 141774 201218
165927 170761 187625
162774 180086 180774
114207 105951 136562
117774 110998 149774
115304 105287 137410
127590 100774 142774
118189 95624.2 122747
128774 89541.8 121774
90856.2 128795 124357
91541.8 136774 135774
115277 107465 140526
108774 116242 145774
123904 102127 141165
128774 105774 152970
125598 91366.6 122066
128774 85545.8 110774
128274 89906.2 121363
136774 85497.8 117774
95611.4 143536 148046
93589.8 154774 149774
110530 114787 145501
108774 122774 153950
134079 86489.8 117770
138774 81561.8 108774
127885 106178 152322
129774 110342 160774
128624 89651 121651
134774 89773.8 128794
128318 86352.2 111593
130774 81773.8 100794
99831 167145 159847
97773.8 156774 158802
109301 120377 151415
116774 120774 163962
131453 89707.4 124937
128774 94773.8 133890
112785 119642 155833
119774 114362 158774
116537 120328 162736
122774 119774 170886
121618 120675 170487
125774 122358 178774
134194 214544 30670.6
130774 210058 36773.8
130997 211153 35825.8
125774 209230 41773.8
129012 210422 38086.2
135774 208038 54773.8
126088 209208 41531.8
121774 206774 47157.8
134774 207647 53789.4
136774 205914 60773.8
123068 207504 45470.2
114774 203774 44809.8
137254 205929 59938.6
140774 203990 65773.8
117117 204519 45881
110774 199774 50809.8
125798 198894 69047.8
133774 198774 73957.8
140383 203969 64898.2
144774 200102 70773.8
153727 199281 67468.6
157974 193774 77773.8
111971 199992 50508.2
105990 193774 56773.8
131381 198810 72485
132774 196014 80773.8
155128 192926 85897.8
161774 190002 83773.8
106163 194364 55421.8
99773.8 188774 59105.8
125366 197817 71436.2
122774 194006 78773.8
111679 193833 67575.4
104774 187954 73773.8
131446 196710 78712.6
126774 193998 86773.8
132375 196223 80155.4
136774 195894 89773.8
159036 191195 88941.4
168774 185774 92661.8
122836 194364 78693
120774 192018 84773.8
169496 179789 70979.8
173846 175774 73773.8
105791 189151 71464.2
94773.8 181810 72773.8
127142 194803 86434.2
122750 193774 94773.8
172048 169178 66390.2
171186 165774 58773.8
172791 176059 72935.8
177182 167774 74773.8
90579.8 177390 85621.4
90773.8 177974 77773.8
123322 194166 94345
119774 193998 102774
175981 168465 73625.8
177910 160774 72773.8
108885 188206 87067
104774 188002 94773.8
139621 196103 99405
134774 195998 108774
89875.4 176959 85028.2
85573.8 172774 84773.8
86343.4 173234 84422.6
82773.8 167990 81773.8
135210 196031 105635
125774 195974 109774
178282 147873 69201.8
179394 142774 69773.8
172247 153882 55528.2
172018 147774 51773.8
179628 163572 86797.8
181774 157774 82505.8
179179 169853 109896
181994 165774 115774
181468 163325 105697
182062 158774 100774
106213 188626 93896.6
104774 191950 107774
131901 196011 108312
129774 195998 116774
153638 194504 102728
158774 192054 98773.8
180798 144904 74913.4
182774 137954 78773.8
181707 141707 76689.4
[...]
CELL_DATA 1581
SCALARS radius float
LOOKUP_TABLE default
100
100
100
100
96.4176
96.4176
89.6332
89.6332
86.4222
86.4222
86.4222
86.4222
83.3262
83.3262
83.3262
83.3262
80.3411
80.3411
80.3411
80.3411
77.463
77.463
80.3411
80.3411
77.463
77.463
77.463
77.463
77.463
77.463
74.6879
74.6879
72.0123
72.0123
74.6879
74.6879
72.0123
72.0123
66.9452
66.9452
72.0123
72.0123
72.0123
72.0123
74.6879
74.6879
74.6879
74.6879
64.547
64.547
62.2346
62.2346
69.4326
69.4326
69.4326
69.4326
69.4326
69.4326
74.6879
74.6879
66.9452
66.9452
66.9452
66.9452
72.0123
72.0123
69.4326
69.4326
72.0123
72.0123
66.9452
66.9452
66.9452
66.9452
69.4326
69.4326
60.0051
60.0051
57.8555
57.8555
62.2346
62.2346
64.547
64.547
62.2346
62.2346
69.4326
69.4326
66.9452
66.9452
62.2346
62.2346
66.9452
66.9452
66.9452
66.9452
62.2346
62.2346
66.9452
66.9452
64.547
64.547
64.547
64.547
62.2346
62.2346
69.4326
69.4326
60.0051
60.0051
64.547
64.547
64.547
64.547
55.7829
55.7829
53.7845
53.7845
60.0051
60.0051
57.8555
57.8555
60.0051
60.0051
57.8555
57.8555
64.547
64.547
53.7845
53.7845
60.0051
60.0051
62.2346
62.2346
57.8555
57.8555
62.2346
62.2346
64.547
64.547
62.2346
62.2346
57.8555
57.8555
55.7829
55.7829
57.8555
57.8555
55.7829
55.7829
55.7829
55.7829
62.2346
62.2346
55.7829
55.7829
53.7845
53.7845
53.7845
53.7845
60.0051
60.0051
60.0051
60.0051
50
50
53.7845
53.7845
53.7845
53.7845
53.7845
53.7845
53.7845
53.7845
51.8578
51.8578
60.0051
60.0051
51.8578
51.8578
50
50
53.7845
53.7845
48.2088
48.2088
57.8555
57.8555
55.7829
55.7829
51.8578
51.8578
60.0051
60.0051
57.8555
57.8555
64.547
64.547
48.2088
48.2088
51.8578
51.8578
51.8578
51.8578
46.4818
46.4818
57.8555
57.8555
55.7829
55.7829
55.7829
55.7829
57.8555
57.8555
53.7845
53.7845
50
50
50
50
46.4818
46.4818
50
50
46.4818
46.4818
62.2346
62.2346
43.2111
43.2111
48.2088
48.2088
53.7845
53.7845
46.4818
46.4818
55.7829
55.7829
60.0051
60.0051
44.8166
44.8166
53.7845
53.7845
57.8555
57.8555
51.8578
51.8578
48.2088
48.2088
46.4818
46.4818
44.8166
44.8166
46.4818
46.4818
43.2111
43.2111
53.7845
53.7845
51.8578
51.8578
46.4818
46.4818
50
50
40.1706
40.1706
43.2111
43.2111
48.2088
48.2088
41.6631
41.6631
55.7829
55.7829
50
50
43.2111
43.2111
48.2088
48.2088
37.344
37.344
41.6631
41.6631
43.2111
43.2111
51.8578
51.8578
41.6631
41.6631
48.2088
48.2088
51.8578
51.8578
41.6631
41.6631
48.2088
48.2088
48.2088
48.2088
46.4818
46.4818
40.1706
40.1706
50
50
40.1706
40.1706
46.4818
46.4818
40.1706
40.1706
46.4818
46.4818
38.7315
38.7315
38.7315
38.7315
44.8166
44.8166
37.344
37.344
43.2111
43.2111
36.0062
36.0062
37.344
37.344
38.7315
38.7315
43.2111
43.2111
41.6631
41.6631
44.8166
44.8166
55.7829
55.7829
41.6631
41.6631
38.7315
38.7315
43.2111
43.2111
41.6631
41.6631
43.2111
43.2111
40.1706
40.1706
40.1706
40.1706
37.344
37.344
40.1706
40.1706
41.6631
41.6631
48.2088
48.2088
37.344
37.344
38.7315
38.7315
36.0062
36.0062
34.7163
34.7163
33.4726
33.4726
92.9635
92.9635
86.4222
86.4222
83.3262
83.3262
80.3411
80.3411
74.6879
74.6879
77.463
77.463
72.0123
72.0123
74.6879
74.6879
80.3411
80.3411
66.9452
66.9452
77.463
77.463
72.0123
72.0123
74.6879
74.6879
69.4326
69.4326
69.4326
69.4326
74.6879
74.6879
74.6879
74.6879
72.0123
72.0123
66.9452
66.9452
66.9452
66.9452
72.0123
72.0123
74.6879
74.6879
72.0123
72.0123
69.4326
69.4326
69.4326
69.4326
72.0123
72.0123
66.9452
66.9452
66.9452
66.9452
66.9452
66.9452
66.9452
66.9452
69.4326
69.4326
64.547
64.547
60.0051
60.0051
66.9452
66.9452
62.2346
62.2346
62.2346
62.2346
64.547
64.547
66.9452
66.9452
64.547
64.547
64.547
64.547
62.2346
62.2346
66.9452
66.9452
60.0051
60.0051
57.8555
57.8555
72.0123
72.0123
60.0051
60.0051
62.2346
62.2346
64.547
64.547
66.9452
66.9452
69.4326
69.4326
62.2346
62.2346
60.0051
60.0051
66.9452
66.9452
64.547
64.547
69.4326
69.4326
62.2346
62.2346
64.547
64.547
55.7829
55.7829
55.7829
55.7829
64.547
64.547
57.8555
57.8555
62.2346
62.2346
62.2346
62.2346
62.2346
62.2346
53.7845
53.7845
57.8555
57.8555
55.7829
55.7829
55.7829
55.7829
57.8555
57.8555
66.9452
66.9452
53.7845
53.7845
57.8555
57.8555
55.7829
55.7829
60.0051
60.0051
57.8555
57.8555
62.2346
62.2346
57.8555
57.8555
57.8555
57.8555
50
50
62.2346
62.2346
55.7829
55.7829
53.7845
53.7845
51.8578
51.8578
55.7829
55.7829
53.7845
53.7845
48.2088
48.2088
57.8555
57.8555
51.8578
51.8578
55.7829
55.7829
51.8578
51.8578
57.8555
57.8555
62.2346
62.2346
51.8578
51.8578
62.2346
62.2346
57.8555
57.8555
53.7845
53.7845
50
50
50
50
60.0051
60.0051
51.8578
51.8578
55.7829
55.7829
51.8578
51.8578
55.7829
55.7829
48.2088
48.2088
51.8578
51.8578
51.8578
51.8578
60.0051
60.0051
55.7829
55.7829
55.7829
55.7829
51.8578
51.8578
57.8555
57.8555
50
50
46.4818
46.4818
51.8578
51.8578
46.4818
46.4818
51.8578
51.8578
51.8578
51.8578
55.7829
55.7829
48.2088
48.2088
50
50
46.4818
46.4818
57.8555
57.8555
44.8166
44.8166
51.8578
51.8578
43.2111
43.2111
48.2088
48.2088
50
50
44.8166
44.8166
55.7829
55.7829
44.8166
44.8166
48.2088
48.2088
44.8166
44.8166
48.2088
48.2088
43.2111
43.2111
57.8555
57.8555
43.2111
43.2111
57.8555
57.8555
50
50
55.7829
55.7829
46.4818
46.4818
41.6631
41.6631
55.7829
55.7829
50
50
43.2111
43.2111
44.8166
44.8166
48.2088
48.2088
38.7315
38.7315
44.8166
44.8166
43.2111
43.2111
53.7845
53.7845
50
50
41.6631
41.6631
46.4818
46.4818
48.2088
48.2088
44.8166
44.8166
50
50
40.1706
40.1706
40.1706
40.1706
50
50
48.2088
48.2088
41.6631
41.6631
48.2088
48.2088
41.6631
41.6631
44.8166
44.8166
50
50
38.7315
38.7315
37.344
37.344
38.7315
38.7315
37.344
37.344
36.0062
36.0062
37.344
37.344
37.344
37.344
51.8578
51.8578
41.6631
41.6631
40.1706
40.1706
48.2088
48.2088
44.8166
44.8166
43.2111
43.2111
38.7315
38.7315
50
50
36.0062
36.0062
41.6631
41.6631
38.7315
38.7315
36.0062
36.0062
38.7315
38.7315
34.7163
34.7163
38.7315
38.7315
33.4726
33.4726
46.4818
46.4818
40.1706
40.1706
34.7163
34.7163
33.4726
33.4726
92.9635
92.9635
89.6332
89.6332
86.4222
86.4222
77.463
77.463
72.0123
72.0123
69.4326
69.4326
69.4326
69.4326
80.3411
80.3411
77.463
77.463
64.547
64.547
77.463
77.463
77.463
77.463
62.2346
62.2346
74.6879
74.6879
72.0123
72.0123
60.0051
60.0051
77.463
77.463
69.4326
69.4326
74.6879
74.6879
69.4326
69.4326
69.4326
69.4326
64.547
64.547
66.9452
66.9452
64.547
64.547
64.547
64.547
69.4326
69.4326
66.9452
66.9452
69.4326
69.4326
66.9452
66.9452
62.2346
62.2346
62.2346
62.2346
64.547
64.547
72.0123
72.0123
60.0051
60.0051
62.2346
62.2346
57.8555
57.8555
66.9452
66.9452
60.0051
60.0051
62.2346
62.2346
60.0051
60.0051
62.2346
62.2346
64.547
64.547
57.8555
57.8555
62.2346
62.2346
62.2346
62.2346
55.7829
55.7829
60.0051
60.0051
57.8555
57.8555
64.547
64.547
55.7829
55.7829
60.0051
60.0051
60.0051
60.0051
64.547
64.547
62.2346
62.2346
60.0051
60.0051
64.547
64.547
53.7845
53.7845
57.8555
57.8555
51.8578
51.8578
51.8578
51.8578
60.0051
60.0051
53.7845
53.7845
57.8555
57.8555
53.7845
53.7845
57.8555
57.8555
55.7829
55.7829
60.0051
60.0051
60.0051
60.0051
51.8578
51.8578
53.7845
53.7845
55.7829
55.7829
55.7829
55.7829
50
50
53.7845
53.7845
62.2346
62.2346
55.7829
55.7829
50
50
53.7845
53.7845
62.2346
62.2346
60.0051
60.0051
55.7829
55.7829
60.0051
60.0051
50
50
46.4818
46.4818
53.7845
53.7845
55.7829
55.7829
60.0051
60.0051
53.7845
53.7845
55.7829
55.7829
51.8578
51.8578
53.7845
53.7845
57.8555
57.8555
53.7845
53.7845
53.7845
53.7845
46.4818
46.4818
55.7829
55.7829
48.2088
48.2088
48.2088
48.2088
51.8578
51.8578
50
50
50
50
50
50
51.8578
51.8578
44.8166
44.8166
55.7829
55.7829
44.8166
44.8166
50
50
43.2111
43.2111
50
50
50
50
51.8578
51.8578
50
50
51.8578
51.8578
50
50
48.2088
48.2088
43.2111
43.2111
50
50
53.7845
53.7845
41.6631
41.6631
55.7829
55.7829
43.2111
43.2111
50
50
44.8166
44.8166
55.7829
55.7829
50
50
55.7829
55.7829
53.7845
53.7845
51.8578
51.8578
53.7845
53.7845
44.8166
44.8166
53.7845
53.7845
41.6631
41.6631
57.8555
57.8555
44.8166
44.8166
51.8578
51.8578
44.8166
44.8166
43.2111
43.2111
46.4818
46.4818
51.8578
51.8578
43.2111
43.2111
41.6631
41.6631
44.8166
44.8166
48.2088
48.2088
46.4818
46.4818
48.2088
48.2088
40.1706
40.1706
40.1706
40.1706
43.2111
43.2111
43.2111
43.2111
44.8166
44.8166
46.4818
46.4818
46.4818
46.4818
36.0062
36.0062
40.1706
40.1706
44.8166
44.8166
46.4818
46.4818
38.7315
38.7315
37.344
37.344
48.2088
48.2088
36.0062
36.0062
46.4818
46.4818
31.1173
31.1173
36.0062
36.0062
43.2111
43.2111
37.344
37.344
40.1706
40.1706
41.6631
41.6631
53.7845
53.7845
38.7315
38.7315
37.344
37.344
40.1706
40.1706
34.7163
34.7163
36.0062
36.0062
37.344
37.344
46.4818
46.4818
34.7163
34.7163
40.1706
40.1706
32.2735
32.2735
38.7315
38.7315
34.7163
34.7163
34.7163
34.7163
89.6332
89.6332
89.6332
89.6332
80.3411
80.3411
83.3262
83.3262
83.3262
83.3262
69.4326
69.4326
83.3262
83.3262
74.6879
74.6879
64.547
64.547
74.6879
74.6879
72.0123
72.0123
72.0123
72.0123
66.9452
66.9452
69.4326
69.4326
64.547
64.547
62.2346
62.2346
64.547
64.547
66.9452
66.9452
69.4326
69.4326
64.547
64.547
74.6879
74.6879
66.9452
66.9452
72.0123
72.0123
72.0123
72.0123
66.9452
66.9452
64.547
64.547
66.9452
66.9452
64.547
64.547
60.0051
60.0051
62.2346
62.2346
60.0051
60.0051
57.8555
57.8555
66.9452
66.9452
60.0051
60.0051
55.7829
55.7829
57.8555
57.8555
72.0123
72.0123
64.547
64.547
64.547
64.547
69.4326
69.4326
60.0051
60.0051
57.8555
57.8555
50
50
57.8555
57.8555
57.8555
57.8555
60.0051
60.0051
62.2346
62.2346
48.2088
48.2088
60.0051
60.0051
60.0051
60.0051
62.2346
62.2346
64.547
64.547
60.0051
60.0051
55.7829
55.7829
60.0051
60.0051
62.2346
62.2346
62.2346
62.2346
62.2346
62.2346
60.0051
60.0051
50
50
60.0051
60.0051
55.7829
55.7829
60.0051
60.0051
64.547
64.547
57.8555
57.8555
60.0051
60.0051
53.7845
53.7845
53.7845
53.7845
55.7829
55.7829
57.8555
57.8555
48.2088
48.2088
60.0051
60.0051
60.0051
60.0051
57.8555
57.8555
51.8578
51.8578
57.8555
57.8555
48.2088
48.2088
55.7829
55.7829
48.2088
48.2088
53.7845
53.7845
60.0051
60.0051
57.8555
57.8555
48.2088
48.2088
53.7845
53.7845
60.0051
60.0051
53.7845
53.7845
57.8555
57.8555
53.7845
53.7845
46.4818
46.4818
44.8166
44.8166
60.0051
60.0051
48.2088
48.2088
100
96.4176
96.4176
89.6332
89.6332
86.4222
86.4222
92.9635
92.9635
83.3262
83.3262
89.6332
89.6332
80.3411
80.3411
83.3262
83.3262
86.4222
86.4222
80.3411
80.3411
83.3262
83.3262
77.463
77.463
77.463
77.463
74.6879
74.6879
77.463
77.463
74.6879
74.6879
72.0123
72.0123
74.6879
74.6879
69.4326
69.4326
72.0123
72.0123
69.4326
69.4326
72.0123
72.0123
66.9452
66.9452
69.4326
69.4326
64.547
64.547
66.9452
66.9452
66.9452
66.9452
69.4326
69.4326
66.9452
66.9452
64.547
64.547
62.2346
62.2346
66.9452
66.9452
60.0051
60.0051
60.0051
60.0051
66.9452
66.9452
64.547
64.547
64.547
64.547
57.8555
57.8555
64.547
64.547
57.8555
57.8555
62.2346
62.2346
55.7829
55.7829
57.8555
57.8555
62.2346
62.2346
62.2346
62.2346
53.7845
53.7845
60.0051
60.0051
55.7829
55.7829
51.8578
51.8578
60.0051
60.0051
60.0051
60.0051
53.7845
53.7845
51.8578
51.8578
57.8555
57.8555
53.7845
53.7845
51.8578
51.8578
50
50
48.2088
48.2088
57.8555
57.8555
50
50
55.7829
55.7829
55.7829
55.7829
53.7845
53.7845
51.8578
51.8578
48.2088
48.2088
46.4818
46.4818
44.8166
44.8166
48.2088
48.2088
46.4818
46.4818
50
50
51.8578
51.8578
44.8166
44.8166
43.2111
43.2111
46.4818
46.4818
50
50
46.4818
46.4818
50
50
48.2088
48.2088
44.8166
44.8166
43.2111
43.2111
41.6631
41.6631
48.2088
48.2088
48.2088
48.2088
46.4818
46.4818
41.6631
41.6631
44.8166
44.8166
44.8166
44.8166
40.1706
40.1706
40.1706
40.1706
38.7315
38.7315
46.4818
46.4818
37.344
37.344
38.7315
38.7315
37.344
37.344
44.8166
44.8166
37.344
37.344
36.0062
36.0062
36.0062
36.0062
34.7163
34.7163
33.4726
33.4726
43.2111
43.2111
34.7163
34.7163
33.4726
33.4726
31.1173
31.1173
41.6631
41.6631
32.2735
32.2735
33.4726
33.4726
32.2735
32.2735
92.9635
92.9635
89.6332
89.6332
86.4222
86.4222
83.3262
83.3262
80.3411
80.3411
77.463
77.463
83.3262
83.3262
74.6879
74.6879
86.4222
86.4222
80.3411
80.3411
80.3411
80.3411
77.463
77.463
74.6879
74.6879
74.6879
74.6879
77.463
77.463
72.0123
72.0123
72.0123
72.0123
80.3411
80.3411
69.4326
69.4326
77.463
77.463
72.0123
72.0123
80.3411
80.3411
74.6879
74.6879
69.4326
69.4326
69.4326
69.4326
74.6879
74.6879
66.9452
66.9452
72.0123
72.0123
72.0123
72.0123
69.4326
69.4326
69.4326
69.4326
