# vtk DataFile Version 3.0
Tree
ASCII
DATASET POLYDATA
POINTS 1582 float
162774 225274 273.8
162774 225274 10273.8
141774 225774 23773.8
135122 214198 30497.8
137117 217671 28480.6
133774 207774 55941.8
134777 210743 47703.4
152858 203774 58773.8
135479 212821 41936.6
111774 199774 52085.8
133085 207651 54645
125774 197774 71981.8
149848 202695 58311.4
162774 191958 69773.8
125788 199496 67971.8
111774 191026 76773.8
154760 198615 62667
150894 195774 82773.8
114879 199814 51270.6
95773.8 185006 60773.8
152054 196626 76741.8
169774 184774 92393.8
160087 192667 65843.4
172774 172774 67589.8
125778 198290 70778.6
125774 193982 91773.8
125775 195274 85475.4
139774 195998 96773.8
168968 178742 67065.8
177782 172774 82773.8
98045.4 185415 61293
87509.8 173774 70773.8
171632 174564 67432.6
175230 152774 61773.8
167421 184119 91802.2
179782 172774 104774
89831.4 176562 70173.8
83773.8 171242 84773.8
125774 194369 89884.2
113774 194002 110774
174151 159311 63471.4
170014 153774 45773.8
113179 191902 76613
96773.8 182054 88773.8
174551 172991 75879.4
181774 155998 81773.8
121214 194230 97822.2
129774 195998 112774
138654 195144 94774.2
155774 193982 105774
175257 153971 63335.4
179974 133774 65773.8
177035 173597 102251
183998 156774 111774
88206.2 174610 70593.8
79545.8 155774 70773.8
85753.8 174019 82137.4
82773.8 177774 102442
115783 194591 109354
113774 197774 125610
127323 195769 110680
128774 197774 126654
128339 197172 121862
144774 195998 128774
178559 139833 65042.2
183986 132774 78773.8
181909 161821 108917
183998 159774 126774
82155.4 161947 72531
76533.8 152774 83773.8
179549 135591 65554.2
178018 122774 54773.8
114377 194179 110348
96773.8 188774 107590
84621.4 175445 89853
76773.8 161774 101290
140309 196237 125095
153970 194774 119774
170305 180963 94937
171774 185254 111774
180135 158875 82002.2
183998 143774 94773.8
182765 157371 111068
183998 139774 118774
80328.6 157626 71301
82997.8 137774 65773.8
79565 162789 99477
77773.8 149774 107886
83793 177752 101139
83773.8 181022 115774
83787 178733 105530
79773.8 165774 117018
183294 145373 118317
182054 135774 134774
113476 196836 124044
107774 197214 145774
128345 197607 126327
127294 198774 141774
78461 153291 81998.2
79457.8 138774 92773.8
127609 198424 137140
145102 195774 149774
178477 126619 58007.8
185258 128774 37773.8
149871 195213 121370
164774 190062 129774
178958 173021 104017
179230 173774 119774
183417 140501 119137
182014 127774 122774
181861 138845 133427
179946 135774 148774
183099 158913 125859
183774 153774 149018
81983.4 145317 67874.2
81449.8 134774 78773.8
83283.4 138454 65669
87573.8 123774 59773.8
134875 197437 145010
135774 198002 161774
84338.6 179906 114306
87773.8 178774 130898
181996 136695 134370
177178 122774 139774
160303 191607 127253
161774 191774 144002
78708.6 151608 105320
80997.8 137774 105774
179459 135623 145916
172774 128774 157958
109033 195650 141803
105774 186774 159322
78054.2 150324 107116
81773.8 147774 119950
179009 128064 137720
177774 116774 128906
81494.6 169133 115702
84325.8 164774 129774
79752.6 141013 89584.2
83485.8 126774 90773.8
107273 190857 151263
115598 194774 162774
86286.6 128178 61542.2
88361.8 116774 71773.8
178533 174719 116499
174774 181974 126774
87578.2 124127 60394.2
91557.8 112774 58773.8
177727 124361 139158
171258 119774 149774
86743.4 179113 125920
95773.8 189774 135962
87575 123880 59959.8
91529.8 120774 48773.8
106463 188652 155615
98773.8 175774 155966
178149 118982 129167
178070 110774 113774
87861.4 178387 130162
92153.8 174774 143774
177343 123250 139589
171774 112574 138774
182212 153837 147311
178774 149594 162774
112615 192423 160005
115106 187774 171774
83655.4 128531 91233
88357.8 116774 93773.8
139579 196672 147201
148774 194774 139954
82373.4 143259 67212.6
86521.8 140774 49773.8
136273 197537 159348
141070 195774 176774
88541.4 118453 69151.4
93645.8 106774 72773.8
183728 159515 126499
182014 165774 136774
80702.6 147330 114547
85545.8 136774 120774
172857 114467 138154
168774 105506 132774
85135 137352 118781
89613.8 126774 120774
177496 112234 119301
173774 100682 114774
172368 130113 156634
161774 123774 170434
84913 164769 128911
89657.8 159774 142774
172099 113142 138588
166774 111774 147110
81452.6 147641 118329
81557.8 156774 122774
168164 126674 160956
162774 117774 160890
179873 152983 157525
176062 160774 172774
101855 178741 156936
101554 164774 163774
178302 149799 160683
170774 136774 169962
92114.6 110277 71687
97553.8 99773.8 61773.8
113569 187953 167426
111774 174774 176866
177685 155261 165447
173774 149774 175986
88270.2 129947 120176
89737.8 118774 108774
113510 193128 160836
123774 200002 154774
164522 126001 167576
161774 130774 179130
88198.6 118408 92807.8
96289.8 105774 91773.8
181880 165403 133903
176774 178774 141954
90186.6 120606 111852
95773.8 110310 108774
143639 195589 149862
154774 191182 159774
175941 160130 172673
173774 164774 180790
181974 165663 135913
181874 166774 151774
85422.6 136947 120176
88773.8 137774 129970
174779 103114 114505
173774 95773.8 104126
87768.6 137526 127032
94773.8 127774 133322
174075 101411 114693
165882 90773.8 114774
101962 165044 162631
102318 155774 165774
173182 97222.6 107849
167034 87773.8 104774
112765 175697 176419
113774 166774 183362
173910 150135 174091
167206 141774 182774
88953 161963 140194
93773.8 165774 151082
173815 149882 175417
169774 153774 187974
102125 160780 164077
107530 158774 173774
168851 106365 133526
163214 95773.8 127774
173519 164220 179884
167774 169774 189970
150457 192387 157922
151774 188774 171326
96500.6 107017 92104.6
106290 95773.8 91773.8
176728 176291 142127
170774 185186 151774
95078.2 112858 110578
104774 102774 113966
173799 96257 104423
175774 94773.8 94813.8
97095.8 100930 64084.2
104774 87773.8 59157.8
168878 90608.6 105697
168774 85773.8 94881.8
89687.4 127132 120609
95033.8 117774 121774
163323 96570.6 127474
158774 89541.8 121774
93021.8 131327 132751
99773.8 128774 144970
103353 99146.6 91873
106238 93773.8 79773.8
106665 158475 172419
111774 152774 182802
101089 106606 112679
106258 106774 125774
167587 88624.2 105051
157774 81017.8 99773.8
173036 181806 148108
173774 179386 160774
102471 91720.6 60635.8
111774 83773.8 68125.8
168205 169313 187639
159774 177190 192774
151178 188801 170874
150774 185774 181202
93398.6 121645 122533
99773.8 116678 130774
175241 94474.2 95889.8
175774 89773.8 83965.8
97378.2 130787 141646
99541.8 136774 151774
97416.6 100121 62467
97485.8 100774 51773.8
167755 86379 97086.6
161294 80773.8 89773.8
110241 154484 179687
113774 140578 180774
106004 106029 122938
114410 101774 130774
111786 153366 182329
117446 150774 190774
109543 85435 64895
119102 75773.8 63773.8
172536 180847 157466
166774 183774 168810
98082.2 135880 147559
95761.8 148774 152774
176025 160581 172744
173774 172774 172970
112214 144913 179273
111462 136774 172774
174607 90271 87692.2
168774 81573.8 80773.8
175319 89467.4 84663.8
176774 85773.8 75377.8
111215 103391 127796
118574 95773.8 124774
113306 141878 180324
119538 139774 190774
99506.6 136809 151389
103774 139774 161970
89446.2 160430 142000
91533.8 147774 142774
169241 82453 81082.6
163774 74773.8 73969.8
113633 140968 180639
118774 131774 181334
116847 150203 190101
121774 145774 198022
113451 102259 129881
119598 104774 142774
115732 136247 180061
115774 130230 174774
168049 182423 167437
164774 179774 180882
120609 146112 195215
125774 137114 197774
102705 156266 165600
105562 146774 168774
118515 96512.2 124621
126774 89705.8 120774
117754 104019 138906
113774 113542 148774
116325 98575.8 125573
124578 95773.8 132774
118750 104427 140995
128774 99773.8 142966
81484.2 150381 119662
86773.8 151774 133958
122559 102659 141744
128774 105774 152970
124163 91505.8 120720
128774 85545.8 110774
126633 90185.4 120462
136774 85545.8 118774
99819.4 128800 144353
107458 122774 150774
128789 86627 113335
137774 81773.8 109886
126412 104590 148704
121774 110774 155266
106140 124261 150232
112774 121774 159286
128227 105919 152596
130774 109774 160966
128778 85870.2 111542
131662 81773.8 101774
104244 125623 148468
106774 129774 159266
123117 96156.2 129974
134774 91501.8 130774
132089 82524.6 102940
136482 79773.8 94773.8
112837 121450 157925
120582 117774 164774
119008 119186 164185
124274 120774 173774
136626 216216 32517.4
141774 211998 35773.8
134971 215367 29927.8
126774 209898 33773.8
140229 213263 34797
145774 209990 48773.8
128075 210937 33855.4
120258 206774 41773.8
122603 208023 39398.2
122774 203842 56773.8
133567 207737 55552.6
138774 205774 62781.8
138543 205884 61249
147166 202774 65773.8
121267 203761 52893.8
117590 198774 62773.8
138705 205807 62321.8
134774 201774 68805.8
135049 201902 68640.6
132386 198774 73773.8
144579 203707 64416.2
145774 199966 72773.8
161968 192171 68594.6
161242 191774 76773.8
117255 194579 72631
110774 192042 69773.8
133512 199480 73237.4
133774 195998 82773.8
162532 192022 69420.2
167258 185774 74773.8
145111 200549 72343.8
144774 197774 80789.8
165840 187648 73167.8
165774 187258 80773.8
112195 191289 76725.4
103774 187282 73773.8
144305 198275 79347
140774 195998 86773.8
167305 185880 74503
171950 180774 77773.8
105119 187262 79856.6
98453.8 183774 77773.8
114402 192705 75418.2
113774 189982 87773.8
170877 182013 77730.6
173246 179774 83773.8
114815 191407 85500.2
116774 191962 93773.8
176666 173130 81900.6
177890 174774 93773.8
172158 169215 65011
170530 165774 57773.8
99458.2 184172 78616.2
92773.8 179890 79773.8
96455.4 185129 60929.4
87553.8 173774 62773.8
113548 190553 87132.2
107774 188050 92773.8
139438 195742 96173.8
139774 195998 107774
176861 166183 77039.4
178014 160774 74773.8
98187 182889 86086.2
90773.8 177974 86773.8
109968 189001 90630.2
110754 191774 98773.8
146079 195259 102544
147774 195998 107774
177858 161267 75286.6
179782 150774 72773.8
171739 154872 52527.8
171994 147774 49773.8
139973 195936 107230
140774 195998 115774
179724 152451 74578.2
181774 144774 76345.8
177523 174281 90211.8
182014 159774 102774
83696.6 165062 71201.8
[...]
CELL_DATA 1581
SCALARS radius float
LOOKUP_TABLE default
100
100
100
100
96.4176
96.4176
86.4222
86.4222
89.6332
89.6332
83.3262
83.3262
83.3262
83.3262
80.3411
80.3411
80.3411
80.3411
86.4222
86.4222
77.463
77.463
77.463
77.463
77.463
77.463
74.6879
74.6879
72.0123
72.0123
83.3262
83.3262
69.4326
69.4326
74.6879
74.6879
80.3411
80.3411
72.0123
72.0123
64.547
64.547
72.0123
72.0123
69.4326
69.4326
69.4326
69.4326
69.4326
69.4326
62.2346
62.2346
69.4326
69.4326
77.463
77.463
77.463
77.463
66.9452
66.9452
64.547
64.547
62.2346
62.2346
60.0051
60.0051
66.9452
66.9452
72.0123
72.0123
57.8555
57.8555
64.547
64.547
74.6879
74.6879
60.0051
60.0051
72.0123
72.0123
64.547
64.547
64.547
64.547
69.4326
69.4326
72.0123
72.0123
72.0123
72.0123
69.4326
69.4326
62.2346
62.2346
64.547
64.547
60.0051
60.0051
66.9452
66.9452
57.8555
57.8555
51.8578
51.8578
57.8555
57.8555
66.9452
66.9452
60.0051
60.0051
60.0051
60.0051
62.2346
62.2346
66.9452
66.9452
62.2346
62.2346
55.7829
55.7829
66.9452
66.9452
57.8555
57.8555
53.7845
53.7845
69.4326
69.4326
55.7829
55.7829
60.0051
60.0051
66.9452
66.9452
55.7829
55.7829
62.2346
62.2346
62.2346
62.2346
55.7829
55.7829
57.8555
57.8555
62.2346
62.2346
55.7829
55.7829
53.7845
53.7845
62.2346
62.2346
53.7845
53.7845
53.7845
53.7845
53.7845
53.7845
57.8555
57.8555
51.8578
51.8578
60.0051
60.0051
53.7845
53.7845
57.8555
57.8555
53.7845
53.7845
64.547
64.547
50
50
55.7829
55.7829
60.0051
60.0051
64.547
64.547
50
50
62.2346
62.2346
51.8578
51.8578
53.7845
53.7845
60.0051
60.0051
48.2088
48.2088
62.2346
62.2346
51.8578
51.8578
55.7829
55.7829
51.8578
51.8578
53.7845
53.7845
53.7845
53.7845
51.8578
51.8578
51.8578
51.8578
60.0051
60.0051
51.8578
51.8578
50
50
55.7829
55.7829
57.8555
57.8555
57.8555
57.8555
51.8578
51.8578
50
50
55.7829
55.7829
60.0051
60.0051
50
50
57.8555
57.8555
48.2088
48.2088
50
50
46.4818
46.4818
48.2088
48.2088
50
50
55.7829
55.7829
48.2088
48.2088
48.2088
48.2088
48.2088
48.2088
46.4818
46.4818
50
50
51.8578
51.8578
53.7845
53.7845
55.7829
55.7829
44.8166
44.8166
51.8578
51.8578
44.8166
44.8166
57.8555
57.8555
46.4818
46.4818
55.7829
55.7829
50
50
46.4818
46.4818
53.7845
53.7845
43.2111
43.2111
51.8578
51.8578
46.4818
46.4818
43.2111
43.2111
46.4818
46.4818
53.7845
53.7845
43.2111
43.2111
53.7845
53.7845
50
50
40.1706
40.1706
44.8166
44.8166
51.8578
51.8578
43.2111
43.2111
44.8166
44.8166
50
50
51.8578
51.8578
48.2088
48.2088
43.2111
43.2111
41.6631
41.6631
40.1706
40.1706
50
50
41.6631
41.6631
50
50
53.7845
53.7845
40.1706
40.1706
40.1706
40.1706
41.6631
41.6631
48.2088
48.2088
38.7315
38.7315
46.4818
46.4818
38.7315
38.7315
46.4818
46.4818
46.4818
46.4818
44.8166
44.8166
48.2088
48.2088
43.2111
43.2111
60.0051
60.0051
41.6631
41.6631
43.2111
43.2111
41.6631
41.6631
51.8578
51.8578
41.6631
41.6631
40.1706
40.1706
48.2088
48.2088
38.7315
38.7315
40.1706
40.1706
50
50
46.4818
46.4818
38.7315
38.7315
44.8166
44.8166
43.2111
43.2111
92.9635
92.9635
92.9635
92.9635
89.6332
89.6332
86.4222
86.4222
83.3262
83.3262
80.3411
80.3411
74.6879
74.6879
77.463
77.463
72.0123
72.0123
69.4326
69.4326
69.4326
69.4326
74.6879
74.6879
77.463
77.463
64.547
64.547
72.0123
72.0123
64.547
64.547
66.9452
66.9452
69.4326
69.4326
60.0051
60.0051
64.547
64.547
69.4326
69.4326
74.6879
74.6879
62.2346
62.2346
69.4326
69.4326
66.9452
66.9452
66.9452
66.9452
66.9452
66.9452
80.3411
80.3411
66.9452
66.9452
66.9452
66.9452
66.9452
66.9452
66.9452
66.9452
62.2346
62.2346
64.547
64.547
64.547
64.547
62.2346
62.2346
62.2346
62.2346
60.0051
60.0051
64.547
64.547
74.6879
74.6879
62.2346
62.2346
64.547
64.547
74.6879
74.6879
72.0123
72.0123
60.0051
60.0051
62.2346
62.2346
62.2346
62.2346
57.8555
57.8555
55.7829
55.7829
53.7845
53.7845
62.2346
62.2346
64.547
64.547
57.8555
57.8555
72.0123
72.0123
55.7829
55.7829
60.0051
60.0051
66.9452
66.9452
69.4326
69.4326
57.8555
57.8555
62.2346
62.2346
64.547
64.547
62.2346
62.2346
50
50
60.0051
60.0051
62.2346
62.2346
69.4326
69.4326
48.2088
48.2088
60.0051
60.0051
57.8555
57.8555
55.7829
55.7829
64.547
64.547
60.0051
60.0051
55.7829
55.7829
55.7829
55.7829
60.0051
60.0051
62.2346
62.2346
64.547
64.547
60.0051
60.0051
57.8555
57.8555
60.0051
60.0051
60.0051
60.0051
57.8555
57.8555
53.7845
53.7845
66.9452
66.9452
53.7845
53.7845
60.0051
60.0051
57.8555
57.8555
50
50
51.8578
51.8578
60.0051
60.0051
55.7829
55.7829
64.547
64.547
64.547
64.547
50
50
55.7829
55.7829
48.2088
48.2088
55.7829
55.7829
51.8578
51.8578
57.8555
57.8555
53.7845
53.7845
50
50
60.0051
60.0051
57.8555
57.8555
51.8578
51.8578
50
50
57.8555
57.8555
53.7845
53.7845
50
50
51.8578
51.8578
48.2088
48.2088
57.8555
57.8555
50
50
50
50
48.2088
48.2088
53.7845
53.7845
51.8578
51.8578
53.7845
53.7845
55.7829
55.7829
55.7829
55.7829
46.4818
46.4818
53.7845
53.7845
50
50
50
50
51.8578
51.8578
57.8555
57.8555
46.4818
46.4818
53.7845
53.7845
43.2111
43.2111
50
50
46.4818
46.4818
44.8166
44.8166
55.7829
55.7829
50
50
53.7845
53.7845
46.4818
46.4818
48.2088
48.2088
53.7845
53.7845
53.7845
53.7845
48.2088
48.2088
46.4818
46.4818
51.8578
51.8578
51.8578
51.8578
51.8578
51.8578
46.4818
46.4818
51.8578
51.8578
46.4818
46.4818
55.7829
55.7829
44.8166
44.8166
43.2111
43.2111
44.8166
44.8166
43.2111
43.2111
50
50
51.8578
51.8578
44.8166
44.8166
41.6631
41.6631
48.2088
48.2088
50
50
41.6631
41.6631
44.8166
44.8166
50
50
40.1706
40.1706
48.2088
48.2088
46.4818
46.4818
44.8166
44.8166
37.344
37.344
50
50
40.1706
40.1706
44.8166
44.8166
50
50
36.0062
36.0062
48.2088
48.2088
43.2111
43.2111
38.7315
38.7315
48.2088
48.2088
46.4818
46.4818
37.344
37.344
50
50
48.2088
48.2088
46.4818
46.4818
46.4818
46.4818
37.344
37.344
44.8166
44.8166
44.8166
44.8166
41.6631
41.6631
40.1706
40.1706
51.8578
51.8578
38.7315
38.7315
40.1706
40.1706
46.4818
46.4818
40.1706
40.1706
44.8166
44.8166
37.344
37.344
46.4818
46.4818
41.6631
41.6631
40.1706
40.1706
89.6332
89.6332
86.4222
86.4222
80.3411
80.3411
83.3262
83.3262
80.3411
80.3411
77.463
77.463
74.6879
74.6879
77.463
77.463
62.2346
62.2346
83.3262
83.3262
72.0123
72.0123
72.0123
72.0123
80.3411
80.3411
66.9452
66.9452
74.6879
74.6879
62.2346
62.2346
64.547
64.547
72.0123
72.0123
74.6879
74.6879
64.547
64.547
66.9452
66.9452
62.2346
62.2346
64.547
64.547
72.0123
72.0123
64.547
64.547
64.547
64.547
62.2346
62.2346
60.0051
60.0051
60.0051
60.0051
64.547
64.547
62.2346
62.2346
60.0051
60.0051
57.8555
57.8555
57.8555
57.8555
60.0051
60.0051
74.6879
74.6879
72.0123
72.0123
60.0051
60.0051
60.0051
60.0051
62.2346
62.2346
62.2346
62.2346
60.0051
60.0051
57.8555
57.8555
55.7829
55.7829
62.2346
62.2346
69.4326
69.4326
60.0051
60.0051
57.8555
57.8555
69.4326
69.4326
66.9452
66.9452
64.547
64.547
57.8555
57.8555
57.8555
57.8555
51.8578
51.8578
57.8555
57.8555
53.7845
53.7845
60.0051
60.0051
57.8555
57.8555
48.2088
48.2088
55.7829
55.7829
50
50
57.8555
57.8555
57.8555
57.8555
57.8555
57.8555
57.8555
57.8555
64.547
64.547
55.7829
55.7829
55.7829
55.7829
57.8555
57.8555
46.4818
46.4818
60.0051
60.0051
60.0051
60.0051
64.547
64.547
53.7845
53.7845
53.7845
53.7845
51.8578
51.8578
62.2346
62.2346
51.8578
51.8578
57.8555
57.8555
62.2346
62.2346
48.2088
48.2088
53.7845
53.7845
55.7829
55.7829
51.8578
51.8578
51.8578
51.8578
57.8555
57.8555
46.4818
46.4818
60.0051
60.0051
51.8578
51.8578
53.7845
53.7845
55.7829
55.7829
57.8555
57.8555
51.8578
51.8578
57.8555
57.8555
51.8578
51.8578
53.7845
53.7845
48.2088
48.2088
48.2088
48.2088
62.2346
62.2346
51.8578
51.8578
57.8555
57.8555
48.2088
48.2088
48.2088
48.2088
51.8578
51.8578
48.2088
48.2088
48.2088
48.2088
48.2088
48.2088
50
50
53.7845
53.7845
53.7845
53.7845
53.7845
53.7845
53.7845
53.7845
51.8578
51.8578
46.4818
46.4818
51.8578
51.8578
46.4818
46.4818
44.8166
44.8166
55.7829
55.7829
43.2111
43.2111
51.8578
51.8578
48.2088
48.2088
48.2088
48.2088
50
50
50
50
46.4818
46.4818
48.2088
48.2088
48.2088
48.2088
51.8578
51.8578
48.2088
48.2088
46.4818
46.4818
48.2088
48.2088
44.8166
44.8166
51.8578
51.8578
48.2088
48.2088
50
50
55.7829
55.7829
44.8166
44.8166
50
50
44.8166
44.8166
48.2088
48.2088
48.2088
48.2088
41.6631
41.6631
48.2088
48.2088
51.8578
51.8578
44.8166
44.8166
41.6631
41.6631
50
50
50
50
46.4818
46.4818
38.7315
38.7315
38.7315
38.7315
44.8166
44.8166
46.4818
46.4818
38.7315
38.7315
40.1706
40.1706
40.1706
40.1706
44.8166
44.8166
48.2088
48.2088
43.2111
43.2111
44.8166
44.8166
46.4818
46.4818
43.2111
43.2111
38.7315
38.7315
40.1706
40.1706
40.1706
40.1706
38.7315
38.7315
38.7315
38.7315
44.8166
44.8166
37.344
37.344
36.0062
36.0062
44.8166
44.8166
37.344
37.344
36.0062
36.0062
43.2111
43.2111
48.2088
48.2088
55.7829
55.7829
38.7315
38.7315
46.4818
46.4818
40.1706
40.1706
38.7315
38.7315
43.2111
43.2111
43.2111
43.2111
38.7315
38.7315
48.2088
48.2088
44.8166
44.8166
41.6631
41.6631
40.1706
40.1706
86.4222
86.4222
77.463
77.463
74.6879
74.6879
72.0123
72.0123
77.463
77.463
74.6879
74.6879
72.0123
72.0123
66.9452
66.9452
69.4326
69.4326
66.9452
66.9452
62.2346
62.2346
69.4326
69.4326
69.4326
69.4326
66.9452
66.9452
66.9452
66.9452
62.2346
62.2346
64.547
64.547
64.547
64.547
72.0123
72.0123
69.4326
69.4326
62.2346
62.2346
60.0051
60.0051
64.547
64.547
64.547
64.547
62.2346
62.2346
74.6879
74.6879
62.2346
62.2346
66.9452
66.9452
60.0051
60.0051
72.0123
72.0123
57.8555
57.8555
66.9452
66.9452
66.9452
66.9452
57.8555
57.8555
57.8555
57.8555
55.7829
55.7829
62.2346
62.2346
57.8555
57.8555
55.7829
55.7829
57.8555
57.8555
60.0051
60.0051
60.0051
60.0051
69.4326
69.4326
57.8555
57.8555
57.8555
57.8555
62.2346
62.2346
57.8555
57.8555
53.7845
53.7845
55.7829
55.7829
55.7829
55.7829
60.0051
60.0051
66.9452
66.9452
53.7845
53.7845
60.0051
60.0051
53.7845
53.7845
55.7829
55.7829
62.2346
62.2346
60.0051
60.0051
55.7829
55.7829
48.2088
48.2088
48.2088
48.2088
57.8555
57.8555
66.9452
66.9452
64.547
64.547
55.7829
55.7829
66.9452
66.9452
57.8555
57.8555
64.547
64.547
64.547
64.547
53.7845
53.7845
50
50
55.7829
55.7829
60.0051
60.0051
60.0051
60.0051
53.7845
53.7845
55.7829
55.7829
57.8555
57.8555
51.8578
51.8578
50
50
100
96.4176
96.4176
89.6332
89.6332
86.4222
86.4222
92.9635
92.9635
83.3262
83.3262
86.4222
86.4222
83.3262
83.3262
77.463
77.463
80.3411
80.3411
80.3411
80.3411
72.0123
72.0123
77.463
77.463
74.6879
74.6879
69.4326
69.4326
72.0123
72.0123
66.9452
66.9452
74.6879
74.6879
69.4326
69.4326
72.0123
72.0123
62.2346
62.2346
66.9452
66.9452
60.0051
60.0051
74.6879
74.6879
69.4326
69.4326
66.9452
66.9452
60.0051
60.0051
64.547
64.547
64.547
64.547
64.547
64.547
66.9452
66.9452
57.8555
57.8555
62.2346
62.2346
62.2346
62.2346
60.0051
60.0051
57.8555
57.8555
55.7829
55.7829
60.0051
60.0051
62.2346
62.2346
60.0051
60.0051
64.547
64.547
57.8555
57.8555
60.0051
60.0051
57.8555
57.8555
57.8555
57.8555
53.7845
53.7845
55.7829
55.7829
62.2346
62.2346
55.7829
55.7829
53.7845
53.7845
57.8555
57.8555
55.7829
55.7829
53.7845
53.7845
53.7845
53.7845
53.7845
53.7845
50
50
53.7845
53.7845
51.8578
51.8578
51.8578
51.8578
51.8578
51.8578
50
50
51.8578
51.8578
48.2088
48.2088
48.2088
48.2088
46.4818
46.4818
50
50
44.8166
44.8166
50
50
44.8166
44.8166
48.2088
48.2088
46.4818
46.4818
46.4818
46.4818
48.2088
48.2088
44.8166
44.8166
43.2111
43.2111
48.2088
48.2088
43.2111
43.2111
43.2111
43.2111
41.6631
41.6631
46.4818
46.4818
44.8166
44.8166
44.8166
44.8166
43.2111
43.2111
40.1706
40.1706
38.7315
38.7315
41.6631
41.6631
44.8166
44.8166
37.344
37.344
41.6631
41.6631
43.2111
43.2111
36.0062
36.0062
43.2111
43.2111
36.0062
36.0062
40.1706
40.1706
34.7163
34.7163
38.7315
38.7315
33.4726
33.4726
37.344
37.344
33.4726
33.4726
41.6631
41.6631
32.2735
32.2735
36.0062
36.0062
31.1173
31.1173
30.0026
30.0026
32.2735
32.2735
40.1706
40.1706
30.0026
30.0026
28.9278
28.9278
34.7163
34.7163
38.7315
38.7315
27.8914
27.8914
69.4326
69.4326
66.9452
66.9452
92.9635
92.9635
89.6332
89.6332
83.3262
83.3262
80.3411
80.3411
77.463
77.463
86.4222
86.4222
89.6332
89.6332
74.6879
74.6879
83.3262
83.3262
77.463
77.463
80.3411
80.3411
77.463
77.463
77.463
77.463
72.0123
72.0123
74.6879
74.6879
69.4326
69.4326
72.0123
72.0123
69.4326
69.4326
69.4326
69.4326
77.463
77.463
69.4326
69.4326
64.547
64.547
74.6879
74.6879
66.9452
66.9452
66.9452
66.9452
72.0123
72.0123
62.2346
62.2346
