# vtk DataFile Version 3.0
Tree
ASCII
DATASET POLYDATA
POINTS 1582 float
162774 225274 273.8
162774 225274 10273.8
141774 225774 23773.8
134174 214102 30497.8
136454 217603 28480.6
144774 209774 52789.8
139615 214628 37718.2
120222 202774 55773.8
145030 208915 50956.6
153058 199774 67773.8
126235 205285 53138.6
125774 197846 71773.8
120871 202593 55200.6
106390 193774 59773.8
152308 200941 62307.8
167774 185258 70773.8
123835 199335 66511.4
110774 189886 80773.8
126045 198315 71207.4
134774 195774 86897.8
161608 191794 70213.4
171234 183774 92773.8
165964 186041 69973
173782 170774 66773.8
108234 193382 60184.6
92289.8 179774 67773.8
168010 185725 81953
177774 173078 84773.8
132155 196536 82190.6
120774 193986 100774
133988 196003 85485.8
139774 195998 106774
172125 172376 67777.4
177026 152774 67773.8
174771 161791 67775.4
171986 150774 51773.8
174845 176872 83927.4
181774 167074 105774
95122.6 181920 68104.6
81773.8 168862 84773.8
87233.8 173507 76066.2
79773.8 161938 73773.8
176895 174216 84519.8
181774 158774 82753.8
110753 191198 79795
95773.8 183774 93577.8
123296 195365 99867.4
116774 195998 118774
137575 195999 98684.2
157774 193230 103774
176659 152990 67634.6
180046 131774 66773.8
96139 183876 92005
84237.8 177774 99773.8
120296 195656 108564
131774 195998 120774
131741 195889 118547
144774 195998 126774
178841 136942 65466.2
177974 127774 55773.8
180768 160563 83933.4
183998 141774 87773.8
180179 166205 102423
183998 152774 118774
81763.4 162939 73832.6
79597.8 146774 69773.8
82547.8 169264 84547.4
76773.8 162774 99949.8
80848.2 162478 73805.8
76773.8 154774 85589.8
95883.4 183804 93105.8
92181.8 187774 110774
117305 196188 118397
113774 198018 135774
140850 195671 122116
156774 193998 118774
170579 184327 92372.2
172774 183966 110774
131764 195965 120106
132774 197998 134774
178320 129969 56459.8
178774 125774 41981.8
134100 197006 130900
144774 195998 143774
182967 154300 114639
183998 137774 120774
183689 153232 117533
183998 147774 134774
183905 149411 129602
182018 134774 134774
78657.4 156267 80268.2
77713.8 141774 83773.8
80743.8 149038 70449.8
83605.8 131774 66773.8
77841.8 154415 84581.8
77541.8 146774 97773.8
78647 163266 97446.6
79017.8 153774 111774
78263 147539 96639
79773.8 140774 108798
183970 148265 133222
183998 154774 145774
92424.2 185442 108129
86773.8 178774 125958
115115 197323 129171
98773.8 193774 134882
92254.6 187074 109981
93773.8 191222 123774
182584 139165 133222
177946 133774 152774
113865 196873 134704
108774 192774 155962
171289 184868 109085
169978 186774 125774
107718 191771 146838
101774 186774 152966
143418 195759 139300
161774 191774 144002
78520.6 143867 83667.4
81657.8 128774 89773.8
144259 195907 142074
131074 199774 154774
135029 198614 150964
136774 197894 165774
87863.8 178614 121538
83661.8 164774 128774
181295 166813 104769
181230 169774 124774
83668.6 134755 66226.2
89573.8 119774 55773.8
182188 136091 134308
179782 118774 124774
87100.6 178726 124632
89773.8 173774 139890
182069 135169 134634
174774 119774 141326
108457 192473 153225
107774 182774 166866
177168 133668 150601
171194 128774 161774
108679 192683 155141
117570 193774 167774
183539 153297 144372
180774 156774 159970
181632 167855 120492
183978 161774 132774
85440.2 130261 63090.6
89773.8 112474 72773.8
179653 120016 124599
177814 109774 117774
102603 192504 133864
93773.8 185182 137774
179743 119147 124721
172542 109774 131774
82089 142468 68507
85585.8 139774 52773.8
103770 186963 150868
97773.8 172774 156802
82366.6 130523 89030.6
87773.8 117774 94097.8
137422 197531 163835
141082 195774 175774
89427 120576 55595
93773.8 110654 46773.8
174789 121147 139993
169774 112414 142774
80345.8 141481 107077
86773.8 132774 119958
172986 130242 158422
167298 120774 157774
85067.8 166551 127240
85601.8 150774 131774
171069 129192 161325
163774 126414 170774
88893 117761 68124.6
94317.8 105774 63773.8
171283 185307 122808
176774 179970 136774
180539 155101 158315
176774 154774 171886
108938 185001 164570
114774 179978 176774
174241 131270 156076
173206 138774 167774
100751 175634 156855
101554 166774 163774
177465 110859 119106
171774 97773.8 114126
87226.2 119816 92264.2
94289.8 107774 90773.8
144619 195971 143264
149050 193774 157774
87609.4 118387 93547.8
93773.8 111774 104134
132261 199426 153631
120774 200002 150774
177903 154872 167815
174774 146774 171890
112089 182289 171160
109514 169774 174774
167717 122350 158089
159322 113774 158774
89577 116795 98727
89773.8 119774 110126
183860 154331 145353
181978 167774 146774
177113 154803 170665
173986 164774 178774
86657.8 133880 118865
93705.8 126774 130774
170549 115164 142781
162774 110226 149774
94051.4 107090 65166.2
99565.8 96773.8 63773.8
165907 128277 169035
160774 132774 181978
101919 167089 163046
103774 157774 169082
175963 149851 170341
170774 150774 182026
147721 194433 153421
159774 189990 156774
94268.2 109387 91250.6
102286 99773.8 90773.8
174152 182578 133286
171774 185258 146774
172195 99441 113436
166774 88773.8 105970
89630.6 173119 137215
92317.8 165774 147774
171900 98273.8 113919
165290 96773.8 125774
174136 162362 178124
169026 166774 189774
149004 193497 157442
152806 189774 168774
93829 112150 104023
102262 104774 113774
111358 174595 174693
114774 165774 185294
173776 102867 115137
174774 95561.8 97773.8
90550.6 119101 109230
92773.8 120774 119954
181897 165264 147409
177774 175774 154054
93130.6 128488 129763
99705.8 124774 140774
171674 151085 180516
167194 154774 193774
113203 169832 180417
110318 156774 179774
171044 150867 181573
166010 142774 185774
172535 183837 145258
171774 183246 156774
101029 101332 89922.6
108774 92361.8 83773.8
168377 91201.4 106418
167774 85541.8 94773.8
98739 98299 63169.8
104294 87773.8 56773.8
169530 166774 186909
162774 175282 191774
151355 190512 166974
149774 187866 177774
99731.8 106987 110849
108686 95773.8 106774
97207 126185 136590
97773.8 134774 146970
168148 89051 101993
156794 79773.8 98773.8
101503 105438 112896
105998 107774 126774
93533 127288 130471
98233.8 118774 129774
174904 96317.8 98609
175774 92317.8 87773.8
101294 93457.4 60227.4
111774 84129.8 68773.8
105003 90563.4 64571.4
107574 90773.8 74773.8
111378 158479 179947
112326 143774 179774
163478 173659 190040
154774 180098 188774
167255 89502.2 106104
157774 83601.8 110774
172600 182267 154148
175774 174774 166806
92782.2 112603 50281.4
97557.8 99773.8 49773.8
167100 86102.6 96180.6
162026 80773.8 86773.8
114364 165794 184389
115774 155774 191026
104649 107073 122611
115666 100774 130774
97621 134135 145326
97773.8 146774 155250
172022 182952 155986
166774 183774 168810
111066 84943.8 67359
119774 77537.8 66773.8
175215 92045.4 89057
174774 86773.8 79973.8
111868 146239 178202
111774 135774 173962
98395.8 139348 150760
102774 139774 159330
97977.4 136533 147826
93021.8 147774 145774
173949 87499 82782.2
167774 78773.8 77325.8
112189 144513 179302
119006 139774 189774
108835 104679 125713
116182 95773.8 120774
114779 142713 183281
118774 133566 182774
111431 103195 127636
113774 108218 140774
112076 136605 173667
112774 129774 169274
166633 183297 167557
161774 182774 175326
117820 141597 188242
123518 143774 198774
164423 182439 172795
165774 178774 181114
101908 140499 158198
105034 145774 167774
113071 106711 136833
124222 102774 143774
116211 96231 120839
122582 89773.8 116774
87081.8 152463 131723
91497.8 138774 136774
113605 108227 140304
115130 113774 151774
122009 91038.6 117731
130774 86353.8 115774
91296.6 168565 143761
89661.8 156774 142774
121848 104397 143325
128774 106774 153958
114673 112110 148333
107774 120774 150886
128686 87989.4 117299
137774 86325.8 121774
130689 86541.4 115712
137774 81733.8 109774
112250 131465 169505
110774 124774 159946
130088 86975.8 116188
128502 83773.8 105774
92346.2 165854 147029
95657.8 157774 154774
132866 87224.2 119357
134774 90773.8 129890
130075 84579.8 108579
135774 81525.8 99773.8
133266 90091.4 126763
128774 94773.8 133890
115453 113205 151139
119106 115774 159774
118457 115866 158840
122006 119774 168774
118911 115801 159494
128774 112342 163774
122205 119083 168449
126774 121774 178966
134356 214755 30670.6
129774 210014 36773.8
129560 210970 35380.6
123774 208010 38773.8
129710 210301 36355.8
135774 207982 55773.8
125519 208873 38759.8
121774 206774 47157.8
144851 209516 52239.8
143774 205774 61117.8
122897 207403 44638.6
114774 203786 44773.8
133759 207197 53633.4
133774 203190 64773.8
143472 205947 60850.6
141774 203186 67773.8
120521 202691 55510.2
108774 197774 52885.8
141532 203454 66673
136774 199774 73261.8
153040 199622 67120.6
154802 195774 76773.8
141701 203266 67443.4
144774 199774 74793.8
155630 195938 74805
159774 191962 80773.8
115098 194031 71511.4
109574 190774 71773.8
159619 192336 80741.4
162774 189890 85773.8
125855 197987 71603.8
122774 194006 78773.8
144105 200115 74368.2
146774 196002 83773.8
106943 193656 59897
95773.8 185246 58773.8
110555 191244 72381.8
102774 185990 76773.8
123746 194973 77957.8
123774 193234 86773.8
167231 185493 70533.4
172774 177970 75773.8
110768 190279 80480.2
113774 189982 87773.8
171697 179133 74062.2
175774 171774 73653.8
171037 183940 92653.4
175870 178774 97773.8
121934 194620 100357
116774 191990 94773.8
173285 171255 67075
170774 165774 58249.8
92845 179857 67636.2
87553.8 173774 65773.8
103247 186211 75928.2
95569.8 180774 78773.8
112872 190071 85585.8
107774 188014 91773.8
121122 194176 100649
113774 192018 101774
171147 166249 58554.6
169954 162774 51773.8
173977 164966 67776.2
178014 160774 74773.8
174868 179609 97511.4
178034 174774 105774
96831 181754 79265.4
89773.8 177290 87773.8
136499 196001 94724.6
128774 195814 106774
115978 192665 101436
111774 193986 109774
108870 188845 91223
105774 189986 99773.8
139910 195998 106145
142774 195998 113774
181737 154926 85085.4
181774 146774 76753.8
181790 165685 111344
182774 161890 114774
176831 176611 102634
182062 158774 100774
106205 190121 99243
103774 191774 107650
146399 194779 98811
151774 194014 94773.8
181799 147995 79146.2
182022 139774 77773.8
[...]
CELL_DATA 1581
SCALARS radius float
LOOKUP_TABLE default
100
100
100
100
92.9635
92.9635
89.6332
89.6332
86.4222
86.4222
86.4222
86.4222
83.3262
83.3262
83.3262
83.3262
83.3262
83.3262
80.3411
80.3411
80.3411
80.3411
74.6879
74.6879
80.3411
80.3411
77.463
77.463
77.463
77.463
74.6879
74.6879
69.4326
69.4326
64.547
64.547
74.6879
74.6879
77.463
77.463
74.6879
74.6879
69.4326
69.4326
77.463
77.463
74.6879
74.6879
69.4326
69.4326
62.2346
62.2346
74.6879
74.6879
72.0123
72.0123
69.4326
69.4326
60.0051
60.0051
64.547
64.547
72.0123
72.0123
72.0123
72.0123
69.4326
69.4326
69.4326
69.4326
72.0123
72.0123
69.4326
69.4326
64.547
64.547
74.6879
74.6879
66.9452
66.9452
55.7829
55.7829
64.547
64.547
69.4326
69.4326
66.9452
66.9452
64.547
64.547
66.9452
66.9452
64.547
64.547
64.547
64.547
64.547
64.547
60.0051
60.0051
62.2346
62.2346
69.4326
69.4326
66.9452
66.9452
66.9452
66.9452
62.2346
62.2346
64.547
64.547
69.4326
69.4326
62.2346
62.2346
62.2346
62.2346
64.547
64.547
60.0051
60.0051
57.8555
57.8555
64.547
64.547
69.4326
69.4326
60.0051
60.0051
60.0051
60.0051
62.2346
62.2346
57.8555
57.8555
60.0051
60.0051
57.8555
57.8555
57.8555
57.8555
60.0051
60.0051
62.2346
62.2346
57.8555
57.8555
57.8555
57.8555
62.2346
62.2346
55.7829
55.7829
62.2346
62.2346
57.8555
57.8555
62.2346
62.2346
51.8578
51.8578
53.7845
53.7845
53.7845
53.7845
57.8555
57.8555
53.7845
53.7845
62.2346
62.2346
51.8578
51.8578
53.7845
53.7845
66.9452
66.9452
55.7829
55.7829
57.8555
57.8555
55.7829
55.7829
53.7845
53.7845
55.7829
55.7829
60.0051
60.0051
57.8555
57.8555
57.8555
57.8555
55.7829
55.7829
51.8578
51.8578
55.7829
55.7829
48.2088
48.2088
55.7829
55.7829
57.8555
57.8555
50
50
53.7845
53.7845
51.8578
51.8578
51.8578
51.8578
48.2088
48.2088
51.8578
51.8578
50
50
53.7845
53.7845
55.7829
55.7829
64.547
64.547
51.8578
51.8578
57.8555
57.8555
50
50
46.4818
46.4818
51.8578
51.8578
53.7845
53.7845
53.7845
53.7845
53.7845
53.7845
53.7845
53.7845
53.7845
53.7845
51.8578
51.8578
48.2088
48.2088
51.8578
51.8578
46.4818
46.4818
62.2346
62.2346
51.8578
51.8578
50
50
50
50
43.2111
43.2111
48.2088
48.2088
50
50
50
50
48.2088
48.2088
48.2088
48.2088
50
50
50
50
48.2088
48.2088
46.4818
46.4818
50
50
41.6631
41.6631
48.2088
48.2088
57.8555
57.8555
50
50
46.4818
46.4818
50
50
46.4818
46.4818
46.4818
46.4818
55.7829
55.7829
43.2111
43.2111
46.4818
46.4818
48.2088
48.2088
43.2111
43.2111
44.8166
44.8166
43.2111
43.2111
46.4818
46.4818
44.8166
44.8166
44.8166
44.8166
43.2111
43.2111
46.4818
46.4818
51.8578
51.8578
43.2111
43.2111
50
50
40.1706
40.1706
41.6631
41.6631
43.2111
43.2111
57.8555
57.8555
40.1706
40.1706
40.1706
40.1706
55.7829
55.7829
38.7315
38.7315
38.7315
38.7315
38.7315
38.7315
36.0062
36.0062
44.8166
44.8166
37.344
37.344
53.7845
53.7845
37.344
37.344
36.0062
36.0062
36.0062
36.0062
37.344
37.344
36.0062
36.0062
34.7163
34.7163
34.7163
34.7163
89.6332
89.6332
83.3262
83.3262
80.3411
80.3411
77.463
77.463
83.3262
83.3262
74.6879
74.6879
74.6879
74.6879
80.3411
80.3411
80.3411
80.3411
74.6879
74.6879
80.3411
80.3411
72.0123
72.0123
77.463
77.463
80.3411
80.3411
72.0123
72.0123
77.463
77.463
69.4326
69.4326
77.463
77.463
77.463
77.463
72.0123
72.0123
72.0123
72.0123
74.6879
74.6879
66.9452
66.9452
72.0123
72.0123
72.0123
72.0123
66.9452
66.9452
72.0123
72.0123
74.6879
74.6879
69.4326
69.4326
69.4326
69.4326
62.2346
62.2346
66.9452
66.9452
66.9452
66.9452
69.4326
69.4326
72.0123
72.0123
66.9452
66.9452
66.9452
66.9452
66.9452
66.9452
62.2346
62.2346
64.547
64.547
64.547
64.547
64.547
64.547
64.547
64.547
60.0051
60.0051
62.2346
62.2346
57.8555
57.8555
66.9452
66.9452
64.547
64.547
69.4326
69.4326
66.9452
66.9452
64.547
64.547
66.9452
66.9452
64.547
64.547
62.2346
62.2346
62.2346
62.2346
60.0051
60.0051
66.9452
66.9452
55.7829
55.7829
72.0123
72.0123
53.7845
53.7845
62.2346
62.2346
53.7845
53.7845
57.8555
57.8555
64.547
64.547
64.547
64.547
62.2346
62.2346
62.2346
62.2346
57.8555
57.8555
57.8555
57.8555
57.8555
57.8555
62.2346
62.2346
66.9452
66.9452
62.2346
62.2346
64.547
64.547
51.8578
51.8578
69.4326
69.4326
62.2346
62.2346
62.2346
62.2346
53.7845
53.7845
53.7845
53.7845
55.7829
55.7829
60.0051
60.0051
60.0051
60.0051
60.0051
60.0051
55.7829
55.7829
51.8578
51.8578
60.0051
60.0051
57.8555
57.8555
62.2346
62.2346
62.2346
62.2346
55.7829
55.7829
53.7845
53.7845
60.0051
60.0051
53.7845
53.7845
64.547
64.547
55.7829
55.7829
55.7829
55.7829
60.0051
60.0051
55.7829
55.7829
51.8578
51.8578
53.7845
53.7845
51.8578
51.8578
53.7845
53.7845
55.7829
55.7829
55.7829
55.7829
53.7845
53.7845
50
50
51.8578
51.8578
60.0051
60.0051
55.7829
55.7829
51.8578
51.8578
55.7829
55.7829
51.8578
51.8578
57.8555
57.8555
50
50
51.8578
51.8578
53.7845
53.7845
53.7845
53.7845
57.8555
57.8555
60.0051
60.0051
55.7829
55.7829
55.7829
55.7829
48.2088
48.2088
51.8578
51.8578
51.8578
51.8578
48.2088
48.2088
50
50
46.4818
46.4818
51.8578
51.8578
55.7829
55.7829
46.4818
46.4818
51.8578
51.8578
44.8166
44.8166
53.7845
53.7845
44.8166
44.8166
62.2346
62.2346
44.8166
44.8166
50
50
50
50
48.2088
48.2088
51.8578
51.8578
51.8578
51.8578
44.8166
44.8166
50
50
51.8578
51.8578
51.8578
51.8578
48.2088
48.2088
48.2088
48.2088
48.2088
48.2088
46.4818
46.4818
46.4818
46.4818
60.0051
60.0051
50
50
44.8166
44.8166
48.2088
48.2088
46.4818
46.4818
46.4818
46.4818
46.4818
46.4818
46.4818
46.4818
46.4818
46.4818
50
50
46.4818
46.4818
48.2088
48.2088
44.8166
44.8166
44.8166
44.8166
44.8166
44.8166
40.1706
40.1706
44.8166
44.8166
41.6631
41.6631
44.8166
44.8166
46.4818
46.4818
53.7845
53.7845
41.6631
41.6631
43.2111
43.2111
51.8578
51.8578
43.2111
43.2111
53.7845
53.7845
40.1706
40.1706
41.6631
41.6631
55.7829
55.7829
38.7315
38.7315
37.344
37.344
40.1706
40.1706
44.8166
44.8166
40.1706
40.1706
37.344
37.344
51.8578
51.8578
43.2111
43.2111
37.344
37.344
53.7845
53.7845
36.0062
36.0062
36.0062
36.0062
37.344
37.344
41.6631
41.6631
44.8166
44.8166
34.7163
34.7163
43.2111
43.2111
34.7163
34.7163
33.4726
33.4726
33.4726
33.4726
96.4176
96.4176
86.4222
86.4222
77.463
77.463
72.0123
72.0123
69.4326
69.4326
72.0123
72.0123
77.463
77.463
77.463
77.463
72.0123
72.0123
74.6879
74.6879
69.4326
69.4326
66.9452
66.9452
64.547
64.547
74.6879
74.6879
66.9452
66.9452
64.547
64.547
77.463
77.463
74.6879
74.6879
72.0123
72.0123
72.0123
72.0123
69.4326
69.4326
74.6879
74.6879
72.0123
72.0123
72.0123
72.0123
64.547
64.547
66.9452
66.9452
60.0051
60.0051
69.4326
69.4326
66.9452
66.9452
64.547
64.547
64.547
64.547
66.9452
66.9452
57.8555
57.8555
64.547
64.547
64.547
64.547
55.7829
55.7829
66.9452
66.9452
69.4326
69.4326
66.9452
66.9452
66.9452
66.9452
62.2346
62.2346
60.0051
60.0051
62.2346
62.2346
64.547
64.547
60.0051
60.0051
60.0051
60.0051
62.2346
62.2346
72.0123
72.0123
62.2346
62.2346
69.4326
69.4326
66.9452
66.9452
66.9452
66.9452
69.4326
69.4326
62.2346
62.2346
60.0051
60.0051
66.9452
66.9452
51.8578
51.8578
64.547
64.547
62.2346
62.2346
50
50
64.547
64.547
60.0051
60.0051
55.7829
55.7829
60.0051
60.0051
62.2346
62.2346
57.8555
57.8555
53.7845
53.7845
64.547
64.547
55.7829
55.7829
62.2346
62.2346
60.0051
60.0051
51.8578
51.8578
51.8578
51.8578
62.2346
62.2346
66.9452
66.9452
64.547
64.547
66.9452
66.9452
60.0051
60.0051
60.0051
60.0051
60.0051
60.0051
55.7829
55.7829
64.547
64.547
55.7829
55.7829
55.7829
55.7829
60.0051
60.0051
60.0051
60.0051
57.8555
57.8555
51.8578
51.8578
57.8555
57.8555
53.7845
53.7845
62.2346
62.2346
57.8555
57.8555
57.8555
57.8555
51.8578
51.8578
57.8555
57.8555
57.8555
57.8555
55.7829
55.7829
57.8555
57.8555
51.8578
51.8578
55.7829
55.7829
50
50
60.0051
60.0051
57.8555
57.8555
60.0051
60.0051
57.8555
57.8555
50
50
51.8578
51.8578
60.0051
60.0051
48.2088
48.2088
53.7845
53.7845
50
50
60.0051
60.0051
55.7829
55.7829
51.8578
51.8578
46.4818
46.4818
53.7845
53.7845
46.4818
46.4818
50
50
46.4818
46.4818
48.2088
48.2088
44.8166
44.8166
53.7845
53.7845
57.8555
57.8555
50
50
50
50
48.2088
48.2088
57.8555
57.8555
43.2111
43.2111
53.7845
53.7845
48.2088
48.2088
50
50
50
50
53.7845
53.7845
46.4818
46.4818
51.8578
51.8578
44.8166
44.8166
46.4818
46.4818
48.2088
48.2088
46.4818
46.4818
57.8555
57.8555
43.2111
43.2111
50
50
53.7845
53.7845
46.4818
46.4818
48.2088
48.2088
53.7845
53.7845
43.2111
43.2111
46.4818
46.4818
44.8166
44.8166
48.2088
48.2088
48.2088
48.2088
48.2088
48.2088
44.8166
44.8166
55.7829
55.7829
43.2111
43.2111
43.2111
43.2111
44.8166
44.8166
43.2111
43.2111
41.6631
41.6631
40.1706
40.1706
41.6631
41.6631
40.1706
40.1706
36.0062
36.0062
41.6631
41.6631
38.7315
38.7315
50
50
41.6631
41.6631
41.6631
41.6631
48.2088
48.2088
38.7315
38.7315
41.6631
41.6631
37.344
37.344
53.7845
53.7845
36.0062
36.0062
41.6631
41.6631
36.0062
36.0062
34.7163
34.7163
34.7163
34.7163
32.2735
32.2735
51.8578
51.8578
41.6631
41.6631
48.2088
48.2088
32.2735
32.2735
33.4726
33.4726
43.2111
43.2111
92.9635
92.9635
80.3411
80.3411
74.6879
74.6879
72.0123
72.0123
72.0123
72.0123
69.4326
69.4326
77.463
77.463
74.6879
74.6879
72.0123
72.0123
74.6879
74.6879
69.4326
69.4326
74.6879
74.6879
72.0123
72.0123
74.6879
74.6879
74.6879
74.6879
64.547
64.547
72.0123
72.0123
69.4326
69.4326
72.0123
72.0123
69.4326
69.4326
69.4326
69.4326
64.547
64.547
64.547
64.547
66.9452
66.9452
72.0123
72.0123
64.547
64.547
60.0051
60.0051
62.2346
62.2346
57.8555
57.8555
72.0123
72.0123
69.4326
69.4326
69.4326
69.4326
64.547
64.547
57.8555
57.8555
64.547
64.547
55.7829
55.7829
64.547
64.547
62.2346
62.2346
62.2346
62.2346
62.2346
62.2346
62.2346
62.2346
64.547
64.547
62.2346
62.2346
62.2346
62.2346
57.8555
57.8555
60.0051
60.0051
60.0051
60.0051
62.2346
62.2346
64.547
64.547
66.9452
66.9452
60.0051
60.0051
60.0051
60.0051
60.0051
60.0051
57.8555
57.8555
66.9452
66.9452
55.7829
55.7829
55.7829
55.7829
64.547
64.547
53.7845
53.7845
50
50
60.0051
60.0051
60.0051
60.0051
48.2088
48.2088
57.8555
57.8555
50
50
48.2088
48.2088
53.7845
53.7845
62.2346
62.2346
46.4818
46.4818
57.8555
57.8555
60.0051
60.0051
62.2346
62.2346
60.0051
60.0051
57.8555
57.8555
55.7829
55.7829
57.8555
57.8555
55.7829
55.7829
51.8578
51.8578
57.8555
57.8555
57.8555
57.8555
100
96.4176
96.4176
89.6332
89.6332
86.4222
86.4222
92.9635
92.9635
83.3262
83.3262
89.6332
89.6332
80.3411
80.3411
86.4222
86.4222
83.3262
83.3262
80.3411
80.3411
77.463
77.463
80.3411
80.3411
77.463
77.463
74.6879
74.6879
74.6879
74.6879
72.0123
72.0123
69.4326
69.4326
74.6879
74.6879
69.4326
69.4326
66.9452
66.9452
66.9452
66.9452
72.0123
72.0123
69.4326
69.4326
66.9452
66.9452
69.4326
69.4326
66.9452
66.9452
62.2346
62.2346
64.547
64.547
64.547
64.547
66.9452
66.9452
66.9452
66.9452
62.2346
62.2346
64.547
64.547
64.547
64.547
62.2346
62.2346
64.547
64.547
60.0051
60.0051
60.0051
60.0051
60.0051
60.0051
62.2346
62.2346
62.2346
62.2346
60.0051
60.0051
60.0051
60.0051
64.547
64.547
60.0051
60.0051
57.8555
57.8555
57.8555
57.8555
57.8555
57.8555
55.7829
55.7829
60.0051
60.0051
57.8555
57.8555
57.8555
57.8555
55.7829
55.7829
55.7829
55.7829
55.7829
55.7829
55.7829
55.7829
53.7845
53.7845
51.8578
51.8578
53.7845
53.7845
51.8578
51.8578
51.8578
51.8578
55.7829
55.7829
53.7845
53.7845
53.7845
53.7845
50
50
48.2088
48.2088
50
50
50
50
48.2088
48.2088
53.7845
53.7845
48.2088
48.2088
46.4818
46.4818
46.4818
46.4818
46.4818
46.4818
44.8166
44.8166
48.2088
48.2088
46.4818
46.4818
51.8578
51.8578
50
50
44.8166
44.8166
43.2111
43.2111
44.8166
44.8166
48.2088
48.2088
43.2111
43.2111
53.7845
53.7845
43.2111
43.2111
46.4818
46.4818
41.6631
41.6631
40.1706
40.1706
43.2111
43.2111
38.7315
38.7315
41.6631
41.6631
38.7315
38.7315
37.344
37.344
36.0062
36.0062
41.6631
41.6631
37.344
37.344
34.7163
34.7163
36.0062
36.0062
36.0062
36.0062
33.4726
33.4726
40.1706
40.1706
34.7163
34.7163
34.7163
34.7163
32.2735
32.2735
38.7315
38.7315
92.9635
92.9635
89.6332
89.6332
86.4222
86.4222
83.3262
83.3262
80.3411
80.3411
77.463
77.463
83.3262
83.3262
74.6879
74.6879
86.4222
86.4222
86.4222
86.4222
83.3262
83.3262
83.3262
83.3262
72.0123
72.0123
74.6879
74.6879
77.463
77.463
77.463
77.463
72.0123
72.0123
74.6879
74.6879
74.6879
74.6879
69.4326
69.4326
72.0123
72.0123
69.4326
69.4326
66.9452
66.9452
72.0123
72.0123
72.0123
72.0123
69.4326
69.4326
69.4326
69.4326
66.9452
66.9452
66.9452
66.9452
64.547
64.547
64.547
64.547
72.0123
72.0123
64.547
64.547
