# vtk DataFile Version 3.0
Tree
ASCII
DATASET POLYDATA
POINTS 1300 float
34443.5 55443.5 6443.45
33438.5 52817.5 12801.5
33820.4 53815.4 10385.4
37151.5 52322.5 13543.5
33761.1 53047.4 12423
34181.5 52569.5 14038.5
34021.8 52751.1 13424.6
29726.5 49847.5 17256.4
31358.7 50950.9 15800.3
25270.5 48857.5 14038.5
36460 52275.1 13349.1
38636.5 49104.5 18245.4
32370.7 51635 14897.6
33191.5 49847.5 19730.4
38463.7 49694.5 16497.1
42843.5 45392.5 17998.4
29812.7 49921.8 16954.7
26261.5 47619.5 18741.4
33561.1 52904.9 12657.7
29230.5 51827.5 11563.5
32523 50334.5 18212.2
30468.5 48857.5 20968.4
26671.8 49076.2 14722.1
23538.4 46382.5 15523.5
38679.9 49172.4 18118.7
39378.5 48114.5 21711.4
41764.8 46207.5 17315.9
43585.5 42917.5 16018.5
38800.9 48742.7 20374.5
37398.5 49352.5 23196.4
28280.4 48828.4 18176.5
27745.5 47867.5 21215.4
32937.5 50032.6 19153.5
35913.5 49847.5 20226.4
39159 48353.2 21203.4
42348.5 46629.5 21711.4
37551.2 49090.3 22017.5
34181.5 49352.5 23443.4
42432 45738.9 17996.8
43833.5 44897.5 20473.4
42990 43493.9 16126.3
42843.5 40689.5 14286.5
24194.5 46828.7 15821.4
22300.4 44897.5 17503.4
37456.5 49252.9 22748.4
39625.5 48857.5 25175.5
37420.5 49314.6 23026.2
36160.5 49599.5 25423.5
43086.4 40946.8 14381.4
43585.5 39204.5 13048.5
30919.3 49256.3 20778.6
29726.5 48857.5 24928.4
23020.1 45631.4 16864.2
23538.4 45392.5 20968.4
43593.7 44847.5 19839.4
44823.5 42917.5 20721.4
41929.4 46766 21935.8
43585.5 45639.5 22948.4
27596.9 48028.7 20971.3
26756.5 47619.5 22948.4
43359.2 43136.5 16059.5
44823.5 40937.5 17750.4
22573.9 45176.4 17260.5
21063.4 43659.5 16513.4
23552.6 45727 20468.4
24033.4 46382.5 22700.4
43157.3 41594.3 15117.4
43833.5 39204.5 15276.5
30256.5 48999.8 23981.3
31211.5 49104.5 26166.5
34068.4 49962.2 19561.2
36160.5 50094.5 17750.4
43052.8 45659.6 22847.8
45813.5 41679.5 25918.5
27018 47799.3 22691.8
27003.5 48114.5 24928.4
31216.6 49128.8 26058.5
34181.5 49599.5 32106.5
38762.5 48995.9 24672.7
38883.5 48857.5 27651.5
39247.3 48778.4 27132.9
41853.5 47867.5 33096.5
39909.5 48443.3 31827.7
39378.5 48362.5 38788.5
39297.5 48910.1 24984.4
42843.5 46877.5 26908.5
39580.3 48393.2 36143.4
43585.5 45639.5 39036.5
39065.6 48482 38132.5
36408.5 49104.5 43738.5
22404.3 45003.5 17411.1
20568.4 43164.5 20226.4
27009 47994.7 24078.5
23291.4 48114.5 29878.5
33207.7 49576.4 31235.8
32943.5 50342.5 37551.5
24526.4 48233.2 28846.6
24943.5 49193.4 33693.4
44601.5 41046.1 17744.4
46061.5 37472.5 20968.4
23760.7 48159.6 29486.4
20568.4 42669.5 31363.5
22547.6 46073.4 30199.7
23043.4 43907.5 36560.5
23370 43838.1 35703.3
24776.4 41184.5 40768.5
21505 43826.7 16904
19578.4 40194.5 17008.4
45351.5 38567.3 19012.4
46308.5 32274.5 18741.4
24946 48748.5 33028.8
25765.5 47867.5 38293.5
23904.4 42829.8 37628.1
23538.4 36234.5 37798.5
24851.8 41926.7 40076.4
27993.5 41432.5 45470.5
23850.7 46133.4 21852.2
21063.4 45392.5 25423.5
20786.9 43210.6 20090
18588.4 39947.5 24681.4
23706.5 37356.9 37302.1
24033.4 31532.5 34581.5
23830.7 35143.7 36268.3
27498.5 30542.5 39283.5
30851.8 49079.7 25269.1
28736.5 49352.5 29630.5
45172 42095.9 25505.2
46555.5 36977.5 28888.5
41889.5 46489.5 37075.8
46061.5 41679.5 35570.5
44900.3 42146.6 36046.4
45813.5 35739.5 36066.5
23940.2 33193.6 35357.4
21311.4 32522.5 29630.5
42941 45962.5 38291.4
41358.5 45144.5 43985.5
22369.9 32168.3 31011.2
22300.4 28314.5 25175.5
26094.7 32763.5 38680
28736.5 32274.5 44233.5
45647.1 35587.9 18359.8
45070.5 33017.5 15028.5
45974.5 37229.4 28152.5
46061.5 32027.5 30126.5
22326.8 29778.9 27393.1
19826.4 32522.5 21463.4
20944 31250.3 22811.1
21558.4 30294.5 16265.5
45289.7 36776.4 36199.5
43833.5 30789.5 37055.5
45795.4 32635 29420.2
44328.5 26334.5 28888.5
22623.7 28493.8 25713.4
24528.4 25097.5 22206.4
20668.9 43185.7 20163.6
19083.4 40194.5 19978.4
20322 40772.8 16798.7
20073.4 35244.5 15771.5
32495 50100.9 36123.3
29230.5 50094.5 39530.5
42281.6 44872.5 41744.9
43091.5 40689.5 45470.5
21606 29977.9 18941.6
23785.4 25097.5 15276.5
26965 31386.5 39054.2
28488.5 26829.5 36066.5
28042.6 27644.1 36145.4
28241.5 23859.4 30868.5
33009.6 49298.8 28301.2
35913.5 49352.5 29630.5
45399.5 33468.9 15234.9
46308.5 31284.5 10078.5
45048.3 40105.9 36104.6
45566.5 37967.5 40025.5
44586 27481.2 28477.6
43338.5 22374.4 24928.4
44927.7 38367.2 38686
42595.5 34254.5 42500.5
28814.2 25140.3 33137.6
32943.5 21384.4 30868.5
23604.1 25833.7 16429.5
26693.5 20943.5 16443.5
19511.5 40551.8 19959.1
19083.4 36977.5 19483.4
43675.3 23614.6 25228.4
43338.5 21384.4 20226.4
43810.9 32128.8 37205.6
40863.5 28809.5 39778.5
31498.3 22560.4 31004.4
32943.5 20394.4 26166.5
21316.6 45085.1 24912.8
19578.4 43659.5 26660.5
43824.9 31298.4 37112.5
42843.5 27324.5 33591.5
24805.1 41466.5 40505.5
26508.5 36482.5 42500.5
44554.8 43077 24286.5
46061.5 40194.5 23443.4
19427.2 40535.2 23039.7
19083.4 35987.5 24433.4
44168.5 26733.8 28819.4
42100.5 24354.4 30126.5
25104.2 47896.8 26465.8
23043.4 47372.5 27155.5
45527.4 41894.4 35789.4
46061.5 41679.5 31115.5
43015.2 22039.1 23112.3
41606.5 19899.4 21958.4
27597.1 32108.1 41124
30221.5 29304.5 42253.5
23008.6 46866.1 29928.6
20568.4 45639.5 28393.5
21606 30139.7 16503.1
21806.4 29799.5 12801.5
25780.7 47595 37856.2
26756.5 45887.5 42748.5
26893.9 41016.3 43790.5
27993.5 37224.5 46955.5
29515.5 49382.7 28730.3
30221.5 50094.5 31611.5
21102.8 43034.1 31153.3
20568.4 38709.5 32106.5
42331.9 30848.8 38847.4
40615.5 31284.5 42500.5
45467.1 41904.3 25695.3
45813.5 42422.5 28145.5
43187.7 42489.6 42989.2
44823.5 39947.5 42995.5
43307.9 35936.6 41720
41853.5 35987.5 46461.5
42438.9 46843.2 26870.1
44328.5 45392.5 28145.5
45972.9 35572.4 29082.9
46308.5 34254.5 32353.5
41026.4 31491.7 42163.1
40121.5 32522.5 45470.5
45972.6 37476.2 20827.4
46555.5 36234.5 22700.4
42134.1 20544.4 22015.8
41853.5 19157.4 19483.4
22346.7 30878 29057.4
24528.4 26829.5 29136.5
39860.2 48525.7 28854.2
42348.5 47619.5 30373.5
22762.8 44427.8 33249
21558.4 41184.5 35076.5
24810.3 24063.7 16895.4
26261.5 22622.4 19730.4
41260.1 47907.2 32446.9
43585.5 46382.5 32353.5
24146.8 31634.5 34652.4
25023.5 29057.5 33591.5
45986.4 41495 32273.6
46555.5 39947.5 30373.5
23846.2 25136.8 15633.7
24776.4 23117.4 14286.5
19267.5 38514.4 19965.2
19083.4 36977.5 21463.4
20947.4 39400.4 32355.6
21311.4 36234.5 34085.5
28319.1 27139 36096.5
31458.5 25344.5 37055.5
18951.3 40014.6 24453.2
19083.4 38957.5 27155.5
26135.1 41777.8 42290
27745.5 43659.5 44480.5
29493.1 49709.3 29911.6
27993.5 50342.5 31611.5
25979.3 37516.3 41788.7
26013.5 34254.5 41263.5
19996 43630.7 26239.8
19083.4 41927.5 27155.5
26703.9 47330.7 40123
28241.5 48114.5 41758.5
41549.6 45007.9 43864.7
40943.4 44693.4 47443.4
42875.6 46777.5 32663.4
44328.5 45392.5 34333.5
23208.7 32277.5 32929.4
23538.4 29799.5 31363.5
23294.4 47357.7 29760.6
22300.4 46877.5 32106.5
42133.4 36460.2 45739.3
41606.5 37719.5 47946.5
46248.2 40783.2 31399.5
46555.5 38709.5 31858.5
28521 26091.7 34280.6
26756.5 26087.5 31858.5
19217.1 37238.2 19721.3
19578.4 34997.5 19978.4
25869.7 23150.2 19242.3
26261.5 23612.4 21711.4
39266 48616.4 33703.7
37893.5 49104.5 34828.5
27586.7 38003.8 45057
27993.5 35739.5 45223.5
21576.5 30235.7 16355.8
21558.4 33017.5 13543.5
27434.3 30695.7 39097.2
28983.5 28562.5 38788.5
28553.1 50086.2 31362.9
28241.5 50094.5 34085.5
30013 24160.5 32625.2
32200.5 23117.4 33591.5
38096.7 48968.4 34434.8
35913.5 49352.5 34828.5
28601.4 32511.8 43972.5
29230.5 33264.5 45966.5
19071.7 39050.3 26209.7
19330.4 36977.5 27155.5
28195.3 49961.2 14598.5
26756.5 50094.5 13048.5
28593 50160.9 33305.9
29973.5 50589.5 35323.5
41173.8 44812.9 46083.5
42443.4 42943.4 47443.4
19364.6 37155.9 26865.5
20073.4 34254.5 26908.5
43902.5 29755.3 35170.1
44943.4 29193.5 33193.4
45195.7 40787.9 35935.6
46555.5 38709.5 35076.5
30365.2 51979.8 12066.8
28983.5 50837.5 13048.5
29338.5 50392.3 34395.4
28488.5 50342.5 36313.5
34156.9 54694.6 8256.77
32193.5 53193.4 8693.45
46148.6 34298.6 31609
45813.5 32027.5 33343.5
27372.6 49483.3 14665.3
26756.5 48609.5 16760.4
32773.1 50250.7 37008.8
34923.5 49847.5 37551.5
35321.3 49247.6 22388.1
33438.5 49352.5 21711.4
21967.7 32302.9 30486.5
21063.4 34254.5 30373.5
23409.8 45796.9 18134.7
24776.4 46629.5 18988.4
25771.3 47764 38127.3
27498.5 49352.5 38788.5
23543.8 45519.6 20778.4
22053.4 44649.5 21215.4
23701.3 43212.9 36896.6
24776.4 44649.5 39530.5
36258.2 49488 24845.5
34428.5 49352.5 25918.5
23322.8 39855.6 37017.1
22053.4 38462.5 35818.5
45033.8 42033.8 23698.3
45070.5 41184.5 21711.4
44475.8 37620.3 40004.6
44823.5 37719.5 42253.5
36197.6 49557.1 25203.9
37398.5 49352.5 26908.5
37476.2 48875.2 40216
35666.5 49352.5 40768.5
35284.6 49445.3 25665
34923.5 49599.5 27403.5
43830.2 30982.9 37077.2
42348.5 28562.5 36560.5
43754.9 39711.2 15406.7
44576.5 38214.5 16513.4
22423.2 28382.6 25379.9
22548.4 27819.5 22700.4
39028.8 48880.1 27588
38388.5 49352.5 29383.5
43558.7 24628.5 27136.3
42595.5 22622.4 26908.5
45164.6 41205.9 22109.3
45813.5 39699.5 20721.4
24416 42342.1 38950.2
24033.4 39947.5 39530.5
45871 40298.1 23316.9
46555.5 38462.5 22700.4
42520.3 24996.9 29981.5
41110.5 24354.4 31611.5
46438.7 40265.1 30763.4
46308.5 40689.5 28888.5
24212.6 27454.8 28770.9
25270.5 25592.5 27898.5
22672.8 47041.7 31646.3
23043.4 47124.5 33343.5
43706.2 44682.3 23181
44823.5 43659.5 22453.4
22500.8 28033.5 23718.6
21558.4 29304.5 22453.4
29804.8 49203.2 27437
28241.5 48857.5 28145.5
23749.3 36509.3 37723.7
24528.4 34749.5 38788.5
41736.9 47780.6 33025.1
42843.5 47124.5 34581.5
30933.9 23168.4 31620.3
29973.5 22127.4 29878.5
33467 49800.4 33875.3
34181.5 49847.5 35076.5
34134.6 52558.2 13933.3
34428.5 51827.5 15523.5
28225.9 50083.2 33986
27251.5 49847.5 35323.5
38217.3 49038.3 23553.9
39625.5 48362.5 23691.4
24400.1 44423.9 38539.5
24776.4 46629.5 39036.5
22178.6 44676.5 21270.7
20073.4 43164.5 22453.4
26656.9 42653.3 42980.2
26756.5 44402.5 42995.5
21159.6 45275.7 25229.4
22053.4 46629.5 26166.5
25663.4 39479 41924.9
26261.5 38709.5 43243.5
20333.5 35781.7 15987.2
20568.4 33759.5 15771.5
29026.1 33269.2 45532
28983.5 34749.5 46708.5
[...]
CELL_DATA 1299
SCALARS radius float
LOOKUP_TABLE default
69.4326
83.3262
74.6879
77.463
69.4326
74.6879
57.8555
64.547
51.8578
77.463
60.0051
69.4326
53.7845
64.547
53.7845
60.0051
51.8578
74.6879
60.0051
64.547
53.7845
53.7845
43.2111
62.2346
51.8578
57.8555
48.2088
55.7829
48.2088
55.7829
44.8166
57.8555
51.8578
53.7845
46.4818
53.7845
48.2088
55.7829
48.2088
51.8578
44.8166
44.8166
37.344
51.8578
43.2111
50
44.8166
46.4818
43.2111
55.7829
50
41.6631
34.7163
50
43.2111
48.2088
43.2111
48.2088
43.2111
50
43.2111
40.1706
37.344
37.344
33.4726
50
43.2111
53.7845
48.2088
55.7829
51.8578
44.8166
32.2735
44.8166
41.6631
50
40.1706
46.4818
41.6631
44.8166
34.7163
38.7315
27.8914
44.8166
38.7315
32.2735
25.9289
30.0026
23.2409
38.7315
33.4726
43.2111
34.7163
41.6631
33.4726
38.7315
34.7163
44.8166
34.7163
37.344
25
33.4726
27.8914
28.9278
21.6055
38.7315
31.1173
38.7315
32.2735
36.0062
30.0026
26.8923
21.6055
23.2409
19.3657
36.0062
28.9278
36.0062
31.1173
23.2409
17.3581
20.8316
16.7363
51.8578
43.2111
36.0062
31.1173
28.9278
23.2409
25
21.6055
18.672
14.4639
26.8923
20.8316
16.7363
12.0522
19.3657
14.4639
33.4726
28.9278
32.2735
25.9289
13.9457
10.8028
11.2042
9.00154
22.4083
17.3581
26.8923
21.6055
12.9644
12.0522
34.7163
31.1173
33.4726
28.9278
36.0062
33.4726
24.1044
18.0031
10.8028
9.00154
18.0031
15.0013
16.1367
12.5
46.4818
38.7315
30.0026
26.8923
23.2409
20.0853
23.2409
17.3581
21.6055
16.1367
14.4639
11.6204
9.68287
8.36815
32.2735
25
18.672
16.1367
19.3657
16.7363
12.5
11.2042
32.2735
28.9278
18.672
13.9457
22.4083
19.3657
38.7315
33.4726
33.4726
31.1173
22.4083
19.3657
40.1706
34.7163
24.1044
20.0853
17.3581
15.5587
18.0031
16.7363
34.7163
32.2735
9.68287
9.00154
32.2735
26.8923
20.8316
18.0031
48.2088
43.2111
26.8923
23.2409
17.3581
15.5587
34.7163
32.2735
23.2409
22.4083
18.672
16.1367
40.1706
38.7315
28.9278
23.2409
16.1367
14.4639
36.0062
34.7163
16.1367
14.4639
15.5587
13.9457
43.2111
41.6631
31.1173
26.8923
9.33599
8.67907
37.344
33.4726
18.0031
17.3581
21.6055
19.3657
9.33599
8.36815
26.8923
25.9289
24.1044
21.6055
15.5587
13.4461
32.2735
27.8914
22.4083
19.3657
46.4818
43.2111
20.0853
18.0031
30.0026
27.8914
30.0026
28.9278
21.6055
20.0853
34.7163
31.1173
17.3581
15.5587
36.0062
33.4726
16.7363
16.1367
20.8316
20.0853
15.5587
14.4639
25.9289
23.2409
9.00154
8.36815
36.0062
31.1173
18.672
15.5587
9.33599
9.00154
17.3581
16.1367
44.8166
38.7315
13.9457
12.9644
34.7163
33.4726
15.0013
12.9644
30.0026
26.8923
57.8555
55.7829
43.2111
37.344
20.8316
18.672
27.8914
25.9289
16.1367
15.5587
24.1044
22.4083
62.2346
57.8555
38.7315
36.0062
92.9635
89.6332
25
22.4083
55.7829
53.7845
34.7163
32.2735
51.8578
48.2088
15.5587
14.4639
38.7315
37.344
31.1173
30.0026
36.0062
33.4726
27.8914
24.1044
48.2088
44.8166
25
22.4083
37.344
34.7163
19.3657
18.0031
46.4818
43.2111
25
24.1044
46.4818
40.1706
18.0031
17.3581
44.8166
41.6631
12.5
11.6204
43.2111
41.6631
20.8316
20.0853
36.0062
33.4726
25.9289
25
34.7163
33.4726
20.8316
20.0853
20.0853
18.0031
14.4639
13.9457
34.7163
32.2735
43.2111
41.6631
12.0522
11.2042
50
46.4818
22.4083
20.8316
36.0062
33.4726
13.4461
11.6204
37.344
36.0062
72.0123
66.9452
40.1706
36.0062
48.2088
46.4818
25.9289
25
34.7163
31.1173
20.8316
20.0853
31.1173
30.0026
20.8316
18.0031
30.0026
27.8914
13.4461
12.5
27.8914
26.8923
44.8166
43.2111
17.3581
16.7363
27.8914
26.8923
11.6204
10.8028
24.1044
23.2409
66.9452
62.2346
20.8316
19.3657
53.7845
48.2088
25
23.2409
36.0062
34.7163
18.0031
17.3581
30.0026
27.8914
32.2735
31.1173
24.1044
23.2409
41.6631
37.344
14.4639
13.9457
34.7163
33.4726
36.0062
34.7163
15.0013
14.4639
34.7163
32.2735
17.3581
16.1367
33.4726
31.1173
33.4726
31.1173
8.67907
8.36815
23.2409
22.4083
32.2735
30.0026
16.7363
15.5587
25.9289
25
34.7163
33.4726
14.4639
13.4461
28.9278
25
13.4461
12.9644
20.0853
19.3657
31.1173
28.9278
13.9457
12.9644
31.1173
30.0026
40.1706
37.344
10.0426
9.68287
31.1173
30.0026
60.0051
57.8555
18.672
18.0031
43.2111
41.6631
53.7845
51.8578
22.4083
20.8316
30.0026
28.9278
96.4176
89.6332
18.672
18.0031
20.8316
20.0853
64.547
62.2346
31.1173
30.0026
33.4726
32.2735
89.6332
86.4222
12.5
12.0522
31.1173
28.9278
80.3411
74.6879
25.9289
24.1044
38.7315
37.344
55.7829
53.7845
16.1367
15.5587
31.1173
28.9278
57.8555
53.7845
16.7363
16.1367
41.6631
40.1706
50
44.8166
15.0013
14.4639
32.2735
31.1173
50
48.2088
9.00154
8.36815
30.0026
28.9278
60.0051
57.8555
19.3657
18.672
41.6631
40.1706
34.7163
32.2735
18.672
18.0031
27.8914
26.8923
44.8166
43.2111
18.672
17.3581
24.1044
23.2409
37.344
36.0062
37.344
36.0062
17.3581
16.1367
37.344
36.0062
53.7845
51.8578
18.672
18.0031
30.0026
28.9278
34.7163
33.4726
12.0522
11.6204
20.0853
19.3657
33.4726
32.2735
15.0013
14.4639
34.7163
32.2735
23.2409
22.4083
40.1706
37.344
62.2346
60.0051
16.7363
16.1367
26.8923
25.9289
33.4726
32.2735
72.0123
69.4326
26.8923
25.9289
30.0026
28.9278
30.0026
28.9278
48.2088
46.4818
20.0853
19.3657
15.0013
13.9457
33.4726
32.2735
55.7829
53.7845
8.67907
8.36815
21.6055
20.0853
31.1173
30.0026
40.1706
38.7315
50
48.2088
19.3657
18.0031
20.8316
19.3657
32.2735
31.1173
32.2735
31.1173
15.5587
15.0013
21.6055
20.8316
25.9289
24.1044
31.1173
30.0026
60.0051
57.8555
18.0031
17.3581
15.0013
13.4461
32.2735
31.1173
44.8166
43.2111
41.6631
40.1706
69.4326
64.547
14.4639
13.9457
22.4083
21.6055
25.9289
25
40.1706
38.7315
74.6879
72.0123
22.4083
21.6055
9.33599
9.00154
34.7163
33.4726
41.6631
40.1706
12.9644
12.5
16.7363
16.1367
25.9289
25
25
24.1044
30.0026
28.9278
27.8914
26.8923
38.7315
37.344
46.4818
44.8166
18.0031
17.3581
18.0031
16.7363
33.4726
32.2735
33.4726
32.2735
27.8914
26.8923
19.3657
18.672
51.8578
50
66.9452
64.547
16.7363
16.1367
10.0426
9.68287
27.8914
26.8923
25.9289
25
26.8923
25.9289
31.1173
30.0026
28.9278
27.8914
62.2346
60.0051
20.0853
19.3657
37.344
36.0062
23.2409
22.4083
38.7315
37.344
25
24.1044
28.9278
27.8914
12.0522
11.6204
26.8923
25.9289
16.7363
16.1367
20.8316
20.0853
24.1044
23.2409
25
24.1044
16.7363
16.1367
24.1044
23.2409
12.9644
12.5
13.4461
12.9644
24.1044
23.2409
22.4083
21.6055
25
24.1044
21.6055
19.3657
18.0031
17.3581
11.6204
11.2042
20.0853
19.3657
18.0031
17.3581
17.3581
16.7363
15.0013
14.4639
25
24.1044
21.6055
20.8316
20.0853
19.3657
13.4461
12.9644
24.1044
23.2409
12.5
12.0522
15.0013
14.4639
20.0853
19.3657
21.6055
20.8316
8.67907
8.36815
19.3657
18.672
18.672
18.0031
19.3657
18.672
17.3581
16.7363
15.0013
14.4639
16.7363
16.1367
12.0522
11.6204
20.0853
19.3657
16.7363
16.1367
16.1367
15.5587
13.4461
12.9644
12.0522
11.6204
13.9457
13.4461
66.9452
64.547
12.9644
12.5
13.4461
12.9644
33.4726
32.2735
20.0853
19.3657
66.9452
62.2346
64.547
62.2346
69.4326
66.9452
62.2346
60.0051
62.2346
60.0051
72.0123
69.4326
86.4222
83.3262
92.9635
89.6332
77.463
74.6879
80.3411
77.463
51.8578
50
51.8578
50
50
48.2088
46.4818
44.8166
43.2111
41.6631
46.4818
44.8166
46.4818
44.8166
46.4818
44.8166
43.2111
41.6631
41.6631
40.1706
36.0062
34.7163
48.2088
46.4818
32.2735
31.1173
33.4726
32.2735
41.6631
40.1706
37.344
36.0062
18.672
18.0031
34.7163
33.4726
44.8166
43.2111
20.0853
19.3657
18.0031
17.3581
18.0031
17.3581
64.547
62.2346
51.8578
50
48.2088
46.4818
37.344
36.0062
25
24.1044
11.6204
11.2042
16.1367
15.5587
9.00154
8.67907
13.9457
13.4461
46.4818
44.8166
31.1173
30.0026
28.9278
27.8914
10.4158
10.0426
15.5587
15.0013
62.2346
60.0051
57.8555
55.7829
43.2111
41.6631
46.4818
44.8166
40.1706
38.7315
24.1044
23.2409
66.9452
64.547
48.2088
46.4818
30.0026
28.9278
18.0031
17.3581
69.4326
66.9452
43.2111
41.6631
28.9278
27.8914
21.6055
20.8316
72.0123
69.4326
44.8166
43.2111
26.8923
25.9289
10.4158
10.0426
72.0123
69.4326
34.7163
33.4726
27.8914
26.8923
16.7363
16.1367
100
96.4176
38.7315
37.344
20.0853
19.3657
51.8578
50
28.9278
27.8914
53.7845
51.8578
25.9289
25
60.0051
57.8555
28.9278
27.8914
50
48.2088
21.6055
20.8316
53.7845
51.8578
25.9289
25
53.7845
51.8578
16.1367
15.5587
33.4726
32.2735
14.4639
13.9457
48.2088
46.4818
38.7315
37.344
8.67907
8.36815
33.4726
32.2735
15.5587
15.0013
31.1173
30.0026
44.8166
43.2111
57.8555
55.7829
38.7315
37.344
44.8166
43.2111
36.0062
34.7163
32.2735
31.1173
60.0051
57.8555
55.7829
53.7845
51.8578
50
50
48.2088
46.4818
44.8166
48.2088
46.4818
44.8166
41.6631
60.0051
55.7829
43.2111
40.1706
48.2088
46.4818
57.8555
55.7829
41.6631
38.7315
34.7163
33.4726
48.2088
46.4818
37.344
36.0062
41.6631
40.1706
40.1706
37.344
50
48.2088
33.4726
32.2735
34.7163
33.4726
37.344
36.0062
36.0062
34.7163
37.344
36.0062
32.2735
31.1173
46.4818
44.8166
38.7315
37.344
33.4726
32.2735
30.0026
28.9278
43.2111
41.6631
40.1706
37.344
30.0026
28.9278
40.1706
38.7315
43.2111
41.6631
28.9278
26.8923
38.7315
37.344
27.8914
26.8923
27.8914
26.8923
41.6631
40.1706
28.9278
27.8914
37.344
36.0062
32.2735
31.1173
22.4083
21.6055
28.9278
26.8923
27.8914
25.9289
36.0062
34.7163
28.9278
27.8914
23.2409
22.4083
26.8923
25.9289
27.8914
24.1044
22.4083
20.8316
23.2409
22.4083
40.1706
38.7315
25
22.4083
21.6055
20.0853
23.2409
22.4083
25.9289
24.1044
24.1044
23.2409
21.6055
20.0853
19.3657
18.672
32.2735
30.0026
28.9278
27.8914
14.4639
13.9457
33.4726
32.2735
19.3657
18.672
26.8923
25.9289
25.9289
25
20.8316
20.0853
25
24.1044
14.4639
13.9457
24.1044
20.8316
23.2409
21.6055
22.4083
21.6055
18.672
18.0031
20.0853
19.3657
31.1173
30.0026
23.2409
21.6055
20.0853
18.0031
17.3581
16.7363
22.4083
21.6055
21.6055
20.0853
33.4726
32.2735
25
23.2409
20.8316
20.0853
22.4083
21.6055
20.8316
20.0853
20.8316
20.0853
24.1044
23.2409
27.8914
26.8923
21.6055
20.8316
22.4083
21.6055
27.8914
25.9289
19.3657
18.672
18.672
18.0031
20.8316
20.0853
21.6055
20.8316
20.8316
20.0853
16.7363
16.1367
20.0853
19.3657
17.3581
15.0013
20.0853
19.3657
13.9457
13.4461
26.8923
25
19.3657
18.672
16.1367
15.5587
16.7363
14.4639
26.8923
25
11.2042
10.8028
25.9289
25
15.5587
15.0013
15.0013
14.4639
15.5587
15.0013
18.672
18.0031
12.9644
12.5
16.7363
15.0013
12.9644
12.0522
16.1367
15.5587
15.0013
14.4639
12.5
12.0522
16.1367
15.5587
12.5
11.6204
16.1367
15.5587
15.0013
14.4639
13.9457
13.4461
15.5587
14.4639
12.0522
11.6204
25.9289
25
17.3581
16.7363
15.0013
14.4639
16.1367
15.5587
15.5587
15.0013
