# vtk DataFile Version 3.0
Lsystem
ASCII
DATASET POLYDATA
POINTS 179 float
39.625 60.07 13.6626
39.625 60.07 15.6626
39.5 58 14.8711
39.5 57.872 15
41.0522 57.25 16
37.9362 57.25 15.75
42.3717 56.5 16.75
41.25 57.072 16.75
37.75 57.25 18.0446
36.25 57.0285 16.75
43 55.871 18
43.582 54.75 16.75
41.75 57.0238 18.5
40.75 57.3515 18.5
37.75 57.002 19.75
36.75 56.581 19.25
34.75 56.0815 16.25
35 56.5 17.5576
43.369 55.5 19.75
42.846 56 20
45.0493 53.5 16.5
44.082 53.75 17.25
41.25 56.8512 20
40.25 57.0277 20.25
38.2435 56.5 21.25
37.5 56.0732 21.25
36.25 56.0433 21
34.9367 55.75 19.75
33.25 55.0565 15.25
33.25 55.529 17
33.75 55.572 17.5
34 55.8105 18.75
43 55.3575 21.5
44.25 54.0508 20.5
46.063 52.25 16.25
45 52.7547 18.25
41.25 56.0807 21.25
39.75 56.5 21.6408
39 56 22.5417
38.75 55.5815 22.75
37.5 55.5 22.822
36.75 55.5815 21.75
36.25 55.5 22.2578
34 55.017 21
31.931 54.25 14.25
32.1418 54.5 15.5
31.9495 54.25 16.75
32.5 54.8705 18
33.25 55.08 18.75
50.37 35.59 17.63
47.89 42.28 19.36
27.85 33.37 19.36
49.38 34.6 19.86
25.87 39.31 19.86
28.34 29.16 20.6
34.53 23.22 23.82
24.38 45.49 24.56
30.82 52.18 25.8
31.31 52.18 25.55
49.63 43.51 25.55
27.85 30.15 25.55
46.41 22.48 25.55
24.13 45.74 25.8
45.91 51.93 26.05
51.36 37.08 26.05
48.14 25.45 26.54
31.31 52.18 27.04
31.06 27.67 27.28
38.98 54.65 27.28
49.87 46.48 28.03
51.36 40.3 28.27
34.03 52.67 28.52
45.42 24.21 28.77
39.73 53.66 29.02
34.78 52.92 29.76
49.63 48.71 30
23.89 40.05 30
50.62 38.81 30.25
37.75 24.21 30.75
41.71 53.91 30.75
43.69 23.96 31.49
28.34 30.4 31.49
42.95 53.66 32.48
24.38 40.05 32.73
33.54 53.41 32.73
50.37 45 32.73
28.59 51.68 32.73
39.23 24.95 33.47
45.17 52.42 33.47
30.82 53.17 33.72
44.18 24.7 33.72
30.57 28.66 33.97
28.59 52.67 34.46
38.49 54.4 34.46
46.91 51.68 34.95
31.81 53.66 35.2
23.89 45.74 35.45
26.61 51.19 35.45
49.87 47.72 36.19
29.58 53.41 36.19
24.63 41.78 36.44
47.65 50.94 36.69
39.23 24.95 36.69
24.88 40.05 37.18
31.31 29.41 37.18
48.64 50.69 37.43
27.85 34.11 37.93
45.17 27.43 37.93
38.24 54.4 38.42
24.38 43.76 38.67
43.69 53.17 38.67
47.4 30.15 38.91
25.87 38.56 39.16
41.96 53.91 39.16
45.67 29.16 39.66
36.26 54.9 40.15
34.53 28.42 40.15
37.01 27.92 41.14
26.36 39.31 41.14
30.32 54.16 41.64
46.16 30.89 41.64
36.26 29.16 42.38
26.61 45.49 42.38
49.63 48.71 42.38
34.28 54.65 43.37
32.3 32.38 43.87
31.31 34.36 44.11
27.35 46.48 44.11
28.1 49.95 44.36
28.34 39.31 44.36
28.34 48.46 44.61
46.66 51.19 44.86
46.16 32.87 44.86
45.17 52.18 45.1
36.76 30.64 45.6
37.01 55.39 45.84
30.07 37.57 46.09
29.83 39.06 46.09
36.26 31.63 46.34
28.59 47.23 46.34
28.1 45.25 46.59
44.43 33.37 47.08
36.26 54.9 47.33
32.8 34.36 47.58
46.41 35.1 47.58
31.06 50.94 47.83
32.8 53.41 47.83
37.99 55.15 48.07
38.98 54.16 48.07
36.76 32.62 48.07
43.19 52.42 48.07
45.67 35.35 48.82
34.53 34.11 48.82
30.32 41.53 49.31
48.88 48.22 49.81
30.32 47.23 50.05
31.81 47.72 50.05
32.05 49.21 50.05
46.16 37.57 50.3
46.16 50.69 50.55
41.46 52.92 50.8
35.27 34.6 51.29
42.7 51.19 51.54
46.66 49.95 51.54
31.56 41.04 51.78
46.66 39.55 52.28
40.72 52.92 52.28
32.8 39.31 52.53
45.67 37.33 52.53
34.28 36.58 53.02
32.05 46.24 53.02
47.65 41.29 53.52
32.8 40.3 53.77
32.3 43.02 54.01
46.66 42.77 55
44.43 49.95 55
34.28 40.54 55.5
33.79 42.28 55.75
35.27 39.8 56.49
LINES 178 534
2 0 1
2 1 2
2 2 3
2 3 4
2 3 5
2 4 6
2 4 7
2 5 8
2 5 9
2 6 10
2 6 11
2 7 12
2 7 13
2 8 14
2 8 15
2 9 16
2 9 17
2 10 18
2 10 19
2 11 20
2 11 21
2 12 22
2 13 23
2 14 24
2 14 25
2 15 26
2 15 27
2 16 28
2 16 29
2 17 30
2 17 31
2 18 32
2 18 33
2 20 34
2 20 35
2 22 36
2 23 37
2 24 38
2 24 39
2 25 40
2 25 41
2 26 42
2 27 43
2 28 44
2 28 45
2 29 46
2 29 47
2 30 48
2 33 63
2 34 49
2 39 68
2 43 57
2 46 51
2 49 50
2 49 52
2 50 59
2 51 53
2 51 54
2 53 56
2 54 55
2 54 60
2 55 61
2 55 78
2 56 62
2 57 58
2 57 66
2 59 64
2 59 69
2 60 67
2 61 65
2 62 76
2 64 70
2 65 72
2 66 71
2 67 81
2 68 73
2 69 75
2 70 77
2 71 74
2 72 80
2 73 79
2 74 84
2 75 85
2 76 83
2 78 87
2 79 82
2 80 90
2 81 91
2 82 88
2 82 93
2 83 96
2 83 100
2 84 86
2 85 98
2 86 89
2 86 92
2 87 102
2 88 94
2 89 95
2 90 107
2 91 104
2 92 97
2 92 99
2 93 108
2 94 101
2 99 119
2 100 103
2 100 109
2 101 105
2 101 110
2 103 112
2 104 106
2 104 116
2 105 123
2 107 111
2 108 115
2 109 122
2 110 113
2 111 114
2 112 118
2 114 120
2 115 124
2 116 117
2 117 121
2 118 129
2 120 132
2 121 125
2 121 134
2 122 127
2 123 131
2 124 135
2 125 126
2 126 143
2 127 128
2 128 130
2 128 145
2 129 136
2 130 139
2 131 133
2 131 154
2 132 141
2 133 150
2 134 138
2 135 142
2 136 137
2 137 153
2 138 149
2 139 140
2 139 155
2 141 144
2 142 147
2 143 152
2 144 151
2 145 146
2 147 148
2 150 160
2 151 158
2 152 161
2 153 164
2 154 159
2 155 156
2 156 157
2 156 170
2 158 165
2 158 168
2 159 163
2 160 162
2 160 166
2 161 169
2 162 175
2 164 167
2 165 171
2 167 172
2 171 174
2 172 173
2 172 176
2 176 177
2 176 178
POINT_DATA 179
SCALARS terminal float 1
LOOKUP_TABLE default
0
0
0
0
0
0
0
0
0
0
0
0
0
0
0
0
0
0
0
0
0
0
0
0
0
0
0
0
0
0
0
0
0
0
0
0
0
0
0
0
0
0
0
0
0
0
0
0
0
1
1
1
1
1
1
1
1
1
1
1
1
1
1
1
1
1
1
1
1
1
1
1
1
1
1
1
1
1
1
1
1
1
1
1
1
1
1
1
1
1
1
1
1
1
1
1
1
1
1
1
1
1
1
1
1
1
1
1
1
1
1
1
1
1
1
1
1
1
1
1
1
1
1
1
1
1
1
1
1
1
1
1
1
1
1
1
1
1
1
1
1
1
1
1
1
1
1
1
1
1
1
1
1
1
1
1
1
1
1
1
1
1
1
1
1
1
1
1
1
1
1
1
1
1
1
1
1
1
1
