# vtk DataFile Version 3.0
Tree
ASCII
DATASET POLYDATA
POINTS 364 float
0.019839 0.001786 -0.005
0.019869 0.000917 0.001569
0.0196063 0.00245661 -0.00236047
0.018119 0.008252 0.001185
0.0196831 0.00119442 0.00068413
0.019498 -0.00271 0.009563
0.0197692 0.00198718 -0.00420814
0.017753 -0.009047 0
0.01902 0.00469076 0.000387473
0.018287 0.007238 0.01043
0.0195163 -0.000102025 0.00760208
0.019352 0.002142 0.012707
0.0180378 0.00722565 0.000898521
0.014257 0.013894 0.002044
0.0193223 -0.00171659 0.00919272
0.018166 -0.006605 0.015182
0.0181151 -0.00593914 0.000835155
0.016742 -0.010558 0.007792
0.0175515 0.0079047 0.00607531
0.014613 0.013258 0.009224
0.0173796 -0.00798742 0.000643101
0.01356 -0.014576 0.001074
0.0192383 0.00187319 0.0116242
0.018129 0.005832 0.017735
0.0189333 -0.00280761 0.0131614
0.018924 -0.001423 0.018233
0.0145317 0.0124979 0.00287529
0.010917 0.016529 0.006322
0.0164908 0.00980234 0.00831295
0.015642 0.011135 0.015986
0.0187753 -0.00288336 0.015474
0.017823 -0.006019 0.019899
0.0127214 0.0143556 0.0034735
0.008572 0.017993 0.000501
0.0148129 -0.0121396 0.00256036
0.012578 -0.015287 0.006998
0.0165732 -0.00974217 0.00698513
0.01457 -0.012923 0.012861
0.0152925 -0.0116349 0.0122553
0.014861 -0.011958 0.017413
0.01837 0.00432914 0.0172285
0.017722 0.004989 0.02291
0.0151428 0.0116104 0.0132613
0.012889 0.014356 0.015024
0.0152559 0.0114351 0.0152703
0.014703 0.011547 0.0208
0.0174842 0.00566041 0.0217488
0.016132 0.008141 0.025256
0.0131151 -0.0138974 0.00391331
0.006996 -0.018625 0.003666
0.0114197 0.0157249 0.00575304
0.008966 0.017461 0.011007
0.0128808 0.0139147 0.0143631
0.00964 0.016702 0.015182
0.0150025 -0.0116735 0.0105581
0.010019 -0.016642 0.013308
0.0184175 -0.00362171 0.0179412
0.018056 -0.00211 0.024563
0.0140646 0.0124352 0.0178602
0.011475 0.014911 0.01978
0.0178607 -0.00505078 0.0194765
0.015587 -0.009206 0.025132
0.0169128 -0.00649167 0.0231859
0.017074 -0.005448 0.026261
0.0103771 0.0160492 0.00293671
0.003979 0.019438 0.005372
0.0180768 -0.00163755 0.0231636
0.017717 0.001305 0.027133
0.0121762 -0.0143861 0.0137086
0.010604 -0.015683 0.018667
0.0158832 -0.00835691 0.0239233
0.012873 -0.013029 0.023588
0.0141685 0.0120947 0.019854
0.013576 0.011716 0.026432
0.00920172 -0.0167628 0.00534945
0.006132 -0.018728 0.009325
0.0103343 0.0157831 0.0157933
0.00749 0.017402 0.018535
0.00565763 0.0183718 0.00600195
0.002662 0.019503 0.010405
0.00752446 -0.0179496 0.00387664
0.003996 -0.01952 0
0.00699279 0.0175875 0.00389543
0.000699 0.019903 0.00037
0.00508906 -0.0188499 0.00273523
0.001851 -0.019819 0.003123
0.0124041 0.0138814 0.0195493
0.010158 0.015161 0.024029
0.00404508 0.0189851 0.00988614
0.004178 0.018946 0.013584
0.0168177 0.0065945 0.0241595
0.016104 0.006131 0.0302
0.00445832 0.0187345 0.00723493
0.000201 0.01978 0.007318
0.0169837 -0.00558369 0.0257068
0.016832 -0.003808 0.02999
0.0102546 -0.0156804 0.0158773
0.006661 -0.017897 0.017204
0.0166955 -0.0063824 0.025131
0.015143 -0.0085 0.029337
0.00651847 -0.0181784 0.0091591
0.004004 -0.019011 0.013276
0.0135978 0.0117679 0.0253783
0.012589 0.011356 0.031592
0.00670826 -0.0178999 0.00760003
0.001166 -0.019728 0.007547
0.0130341 -0.0119044 0.0240738
0.009148 -0.015687 0.024844
0.017733 -9.39954e-05 0.0261826
0.016726 0.00035 0.032536
0.00859705 -0.0166213 0.0175909
0.007415 -0.017141 0.02086
0.0105488 0.0147161 0.0235792
0.008345 0.0154 0.028822
0.00267777 -0.0193915 0.00316668
-0.002189 -0.019742 0.004626
0.00900439 0.0154458 0.0252288
0.006922 0.016736 0.024977
0.00136549 0.0192935 0.00820933
-0.001722 0.019536 0.01062
0.00771119 0.0169931 0.0170605
0.003404 0.018717 0.017969
0.0141038 -0.0104694 0.0247832
0.011924 -0.01255 0.029603
0.00163333 0.0190881 0.00220682
-0.003157 0.019639 0.002901
0.00510196 0.0179118 0.0186237
0.003315 0.018304 0.021605
-0.000201087 0.0193482 0.0105781
-0.001583 0.019281 0.014603
0.0167852 0.00149848 0.0305342
0.015499 0.005086 0.034463
0.0166861 -0.00478546 0.0288134
0.015324 -0.005336 0.034741
0.0070231 -0.0174707 0.0174349
0.003301 -0.01877 0.017665
0.015437 -0.00597631 0.0326986
0.014171 -0.008252 0.034221
0.00396707 -0.0188009 0.0115654
0.00028 -0.01945 0.013048
0.0166518 0.000804927 0.0321232
0.016014 7.2e-05 0.035736
-0.00196103 0.019263 0.00181105
-0.005729 0.019083 0
0.0123135 0.0117835 0.0305329
0.010452 0.012412 0.034911
0.000365852 -0.0195012 0.00311736
-0.00445 -0.019499 0
0.00180031 -0.0190471 0.0134163
-0.000611 -0.019124 0.016905
0.00388107 0.0182786 0.0184331
-0.000344 0.018979 0.018525
-0.00156319 -0.0195361 0.00424132
-0.005566 -0.019011 0.006512
0.00742782 -0.0170416 0.0197116
0.003876 -0.018027 0.022698
0.00812139 0.015436 0.0281305
0.006416 0.01545 0.032512
0.0125935 -0.0115234 0.0290126
0.011201 -0.011856 0.03438
0.00101614 0.0194394 0.00794193
-0.00512 0.019119 0.007414
0.0125497 -0.0116668 0.0275815
0.008505 -0.015183 0.029364
0.00757143 0.0161279 0.0252227
0.002785 0.01783 0.025671
-0.00135288 0.0193178 0.0107228
-0.005495 0.018769 0.011531
0.000355555 -0.0190603 0.0144872
-0.003869 -0.018993 0.014337
0.00166136 0.0185249 0.0194785
-0.000425 0.018558 0.022088
-0.00332754 -0.0192294 0.0020049
-0.007321 -0.018533 0.002707
-0.00379136 0.0190892 0.00162712
-0.007768 0.018369 0.00399
0.00535581 -0.0174349 0.0226915
0.004087 -0.01732 0.026941
0.0119421 0.0115383 0.0324955
0.013251 0.00882 0.036108
0.0153371 -0.00536084 0.0341171
0.014941 -0.002815 0.038892
-0.00177447 0.0191197 0.0138081
-0.004241 0.018609 0.017514
0.015801 0.00331415 0.0340538
0.01474 0.003883 0.038614
0.0147129 -0.00703232 0.0339091
0.01343 -0.00783 0.037539
-0.00382707 0.0186763 0.0151304
-0.006991 0.017974 0.015354
-0.000299637 -0.0190144 0.016242
-0.001908 -0.018573 0.020977
0.00468921 0.0169616 0.0265327
0.002748 0.01716 0.029389
-0.00141683 -0.0190634 0.0138561
-0.004157 -0.019212 0.010269
0.00432503 -0.0177103 0.0228536
0.000847 -0.01826 0.023837
0.00324795 0.0174232 0.0260805
-0.000845 0.018088 0.025457
-0.00452961 0.0188554 0.00803154
-0.008271 0.017903 0.009167
0.00964083 -0.0139058 0.0297599
0.007939 -0.01464 0.032815
0.00618339 0.0156127 0.0312256
0.003149 0.016051 0.034177
-0.00477615 0.0185792 0.0116681
-0.008845 0.017307 0.013175
0.00837356 -0.0144973 0.0306772
0.003871 -0.016715 0.03042
0.00544245 0.0155663 0.032695
0.006743 0.014436 0.036029
0.0108665 -0.0121433 0.0333703
0.008415 -0.013262 0.036908
-0.00731307 0.0181397 0.00341672
-0.010688 0.016727 0.004643
0.0150151 0.00302757 0.0377839
0.01451 0.001478 0.040861
-4.81071e-05 0.0184637 0.0210383
-0.004141 0.017986 0.022605
-0.00635586 -0.0184882 0.00313484
-0.009579 -0.017378 0.005238
-0.00651068 0.0183161 0.00236564
-0.010386 0.017026 0.000383
0.012558 0.00967249 0.035822
0.012272 0.008758 0.039215
0.014722 -0.0046025 0.0374634
0.013593 -0.005562 0.040611
-0.00460552 -0.0189559 0.00646361
-0.007854 -0.018064 0.009583
-0.00210675 -0.0186723 0.0180294
-0.005375 -0.018171 0.018567
0.00355727 -0.017467 0.0251619
2e-05 -0.017648 0.027872
0.0118754 0.0107245 0.0349372
0.009574 0.011456 0.039719
0.000852495 0.0175726 0.026682
-0.001799 0.017387 0.028763
0.0101568 -0.0120278 0.0359301
0.010433 -0.010772 0.03948
-0.00440565 0.0184909 0.0166072
-0.006925 0.01752 0.01972
-0.00313639 -0.0188437 0.0143076
-0.007569 -0.01767 0.015879
0.0148666 0.0034895 0.0382321
0.013245 0.005995 0.041015
0.0135859 -0.00769989 0.0369593
0.012069 -0.008439 0.040399
-0.00559578 -0.0186148 0.00221009
-0.010228 -0.017116 0
-0.00622159 0.0178864 0.0157865
-0.009667 0.016457 0.017282
0.00118833 -0.0174366 0.0278087
0.00015 -0.0171 0.030743
0.00283568 0.0170064 0.0289
0.000288 0.016895 0.031723
0.0138959 -0.00478704 0.0401488
0.013062 -0.004165 0.043457
-0.0078315 0.0175171 0.0118521
-0.011038 0.01624 0.010603
-0.00241214 -0.0185245 0.0196829
-0.004785 -0.017865 0.022471
0.0106627 0.0106574 0.038699
0.010832 0.00944 0.041541
0.0136784 -0.0036653 0.0417364
0.013834 -0.001314 0.042983
0.00777077 -0.0146488 0.0319412
0.004906 -0.015304 0.035583
-0.00923647 0.0168774 0.0118794
-0.011683 0.015411 0.014456
-0.00622884 -0.0180006 0.0144533
-0.009115 -0.017174 0.013032
0.0060629 0.0147148 0.0355317
0.006172 0.013817 0.039016
0.012223 -0.00831527 0.0398245
0.010452 -0.009053 0.043261
-0.00738341 -0.0179915 0.00802948
-0.010814 -0.016531 0.008491
-0.010159 0.0166579 0.00424433
-0.01362 0.014462 0.004971
0.00167031 -0.0174975 0.0263979
-0.002645 -0.017778 0.025861
0.00366716 0.0158734 0.0336087
-0.000194 0.016271 0.03467
0.00919008 -0.0125242 0.036813
0.006611 -0.013193 0.040351
-0.0097185 0.0170222 0.00141364
-0.012431 0.015538 0.001798
0.00494206 -0.0157725 0.0313228
0.001264 -0.016517 0.033277
0.00569449 0.0145055 0.0368789
0.003221 0.014951 0.038435
-0.000688498 0.0174614 0.0272307
-0.005041 0.017136 0.026588
-0.00942637 -0.0171042 0.00109783
-0.012659 -0.015361 0.001395
-0.00468118 -0.0181013 0.0188498
-0.007566 -0.017206 0.020345
0.0144027 0.00258215 0.0402814
0.013261 0.002765 0.044066
0.000392594 0.0168374 0.0307498
-0.002978 0.01653 0.03228
0.0116554 -0.00800589 0.041922
0.011714 -0.006578 0.04437
-0.00914962 -0.0172377 0.0043679
-0.01265 -0.015291 0.005135
-0.0043012 -0.0178747 0.0223197
-0.005769 -0.017146 0.025117
0.000213766 -0.0172011 0.029376
-0.003177 -0.016596 0.031668
0.00992443 0.0110557 0.039485
0.007489 0.011962 0.042346
-0.00397704 0.0171466 0.0261045
-0.007459 0.016709 0.023943
0.00691603 -0.0133147 0.0385533
0.004016 -0.014583 0.038985
-0.0118568 0.0155628 0.00559156
-0.013256 0.014629 0.008433
-0.00833574 -0.01723 0.0141975
-0.010455 -0.016193 0.015164
0.0134136 0.0053002 0.0409314
0.011994 0.006377 0.043897
0.00176156 0.0158248 0.0351554
0.000171 0.015359 0.038223
-0.00254012 0.0171844 0.0272263
-0.005693 0.01627 0.030015
0.00498581 -0.0152172 0.0346215
0.001917 -0.015743 0.036311
-0.0067021 0.0174646 0.0188478
-0.009728 0.015935 0.021052
-0.0116834 0.0157585 0.00111007
-0.014411 0.013781 0
-0.00905129 -0.0169659 0.0135471
-0.011944 -0.015452 0.0118
0.0105273 0.00985833 0.0410143
0.010034 0.008847 0.044532
0.0107712 -0.00877979 0.0425983
0.008348 -0.010916 0.043405
0.0135543 -0.00280515 0.0427088
0.012492 -0.002056 0.046278
-0.0109754 0.0157926 0.0125839
-0.01335 0.01426 0.012187
-0.0133367 0.0144465 0.00136751
-0.01525 0.012768 0.002981
0.0134301 0.00229461 0.0434897
0.01256 0.001294 0.046333
0.00067249 0.0156485 0.0362185
-0.00295 0.015464 0.036833
0.011407 -0.0075984 0.0432417
0.009768 -0.007849 0.046627
-0.0114022 -0.0159087 0.00568188
-0.013194 -0.014716 0.008184
-0.00901656 0.0164486 0.0171573
-0.012266 0.014385 0.018973
-0.00149288 -0.0174283 0.0267668
-0.004695 -0.01693 0.028329
0.00759774 0.0119489 0.0415657
0.005094 0.012951 0.042829
0.00941173 -0.00960866 0.0437687
0.007993 -0.009909 0.046087
0.00648269 -0.0132347 0.0397301
0.004409 -0.012978 0.043492
-0.0116243 0.0147639 0.0178168
-0.013688 0.01338 0.016919
LINES 363 1089
2 4 1
2 6 2
2 12 3
2 2 4
2 14 5
2 0 6
2 20 7
2 2 8
2 18 9
2 4 10
2 22 11
2 8 12
2 26 13
2 10 14
2 24 15
2 6 16
2 36 17
2 8 18
2 28 19
2 16 20
2 34 21
2 10 22
2 40 23
2 14 24
2 30 25
2 12 26
2 50 27
2 18 28
2 44 29
2 24 30
2 60 31
2 26 32
2 64 33
2 20 34
2 48 35
2 16 36
2 38 37
2 54 38
2 38 39
2 22 40
2 46 41
2 28 42
2 52 43
2 42 44
2 72 45
2 40 46
2 90 47
2 34 48
2 80 49
2 32 50
2 50 51
2 42 52
2 76 53
2 36 54
2 68 55
2 30 56
2 66 57
2 44 58
2 86 59
2 56 60
2 70 61
2 60 62
2 94 63
2 32 64
2 78 65
2 56 66
2 108 67
2 54 68
2 96 69
2 62 70
2 106 71
2 58 72
2 102 73
2 48 74
2 100 75
2 52 76
2 120 77
2 82 78
2 88 79
2 74 80
2 84 81
2 64 82
2 124 83
2 80 84
2 114 85
2 58 86
2 112 87
2 92 88
2 88 89
2 46 90
2 90 91
2 78 92
2 160 93
2 98 94
2 132 95
2 68 96
2 134 97
2 62 98
2 98 99
2 104 100
2 138 101
2 72 102
2 144 103
2 74 104
2 104 105
2 122 106
2 106 107
2 66 108
2 140 109
2 96 110
2 154 111
2 86 112
2 156 113
2 84 114
2 152 115
2 112 116
2 164 117
2 92 118
2 166 119
2 76 120
2 150 121
2 70 122
2 158 123
2 82 124
2 142 125
2 120 126
2 126 127
2 118 128
2 182 129
2 108 130
2 184 131
2 94 132
2 180 133
2 110 134
2 134 135
2 132 136
2 186 137
2 100 138
2 148 139
2 130 140
2 140 141
2 124 142
2 174 143
2 102 144
2 178 145
2 114 146
2 172 147
2 138 148
2 190 149
2 126 150
2 170 151
2 146 152
2 228 153
2 110 154
2 196 155
2 116 156
2 204 157
2 162 158
2 212 159
2 118 160
2 200 161
2 122 162
2 202 163
2 116 164
2 198 165
2 128 166
2 206 167
2 148 168
2 242 169
2 150 170
2 218 171
2 146 172
2 220 173
2 142 174
2 214 175
2 154 176
2 232 177
2 144 178
2 224 179
2 136 180
2 226 181
2 128 182
2 240 183
2 130 184
2 244 185
2 136 186
2 246 187
2 182 188
2 250 189
2 168 190
2 260 191
2 164 192
2 254 193
2 168 194
2 194 195
2 176 196
2 196 197
2 192 198
2 236 199
2 160 200
2 200 201
2 162 202
2 266 203
2 156 204
2 282 205
2 166 206
2 258 207
2 202 208
2 288 209
2 204 210
2 272 211
2 158 212
2 284 213
2 222 214
2 278 215
2 184 216
2 298 217
2 170 218
2 218 219
2 248 220
2 304 221
2 174 222
2 286 223
2 234 224
2 224 225
2 180 226
2 256 227
2 152 228
2 276 229
2 190 230
2 296 231
2 176 232
2 252 233
2 178 234
2 310 235
2 198 236
2 292 237
2 212 238
2 238 239
2 188 240
2 328 241
2 194 242
2 270 243
2 216 244
2 320 245
2 186 246
2 274 247
2 172 248
2 294 249
2 188 250
2 352 251
2 280 252
2 308 253
2 192 254
2 300 255
2 226 256
2 264 257
2 206 258
2 268 259
2 230 260
2 306 261
2 234 262
2 334 263
2 256 264
2 338 265
2 208 266
2 326 267
2 258 268
2 340 269
2 242 270
2 332 271
2 210 272
2 290 273
2 246 274
2 336 275
2 228 276
2 276 277
2 214 278
2 316 279
2 232 280
2 354 281
2 210 282
2 322 283
2 238 284
2 360 285
2 222 286
2 330 287
2 208 288
2 288 289
2 272 290
2 290 291
2 236 292
2 312 293
2 248 294
2 294 295
2 230 296
2 296 297
2 216 298
2 344 299
2 254 300
2 300 301
2 274 302
2 348 303
2 220 304
2 350 305
2 260 306
2 306 307
2 252 308
2 308 309
2 262 310
2 356 311
2 324 312
2 312 313
2 284 314
2 314 315
2 278 316
2 316 317
2 270 318
2 318 319
2 244 320
2 320 321
2 282 322
2 346 323
2 292 324
2 324 325
2 266 326
2 326 327
2 240 328
2 328 329
2 286 330
2 342 331
2 318 332
2 332 333
2 262 334
2 334 335
2 302 336
2 358 337
2 264 338
2 338 339
2 268 340
2 340 341
2 330 342
2 342 343
2 298 344
2 344 345
2 322 346
2 346 347
2 302 348
2 348 349
2 304 350
2 350 351
2 250 352
2 362 353
2 280 354
2 354 355
2 310 356
2 356 357
2 336 358
2 358 359
2 314 360
2 360 361
2 352 362
2 362 363
CELL_DATA 363
SCALARS radius float
LOOKUP_TABLE default
0.103932
1.05311
0.108772
0.782927
0.112184
1.17078
0.116584
0.882807
0.158561
0.782316
0.120522
0.675459
0.126121
0.76139
0.162906
0.758806
0.118917
0.724213
0.157366
0.66462
0.150097
0.334427
0.149534
0.760577
0.151829
0.674517
0.132735
0.721671
0.11239
0.758078
0.119443
0.673044
0.159312
0.663422
0.156664
0.52334
0.146512
0.220737
0.196699
0.329126
0.165622
0.719168
0.114503
0.677176
0.127958
0.318497
0.203508
0.660851
0.119368
0.220406
0.203025
0.39456
0.138068
0.521286
0.168199
0.756042
0.136094
0.676143
0.133141
0.687877
0.137854
0.686674
0.109484
0.665071
0.146981
0.474254
0.14712
0.507744
0.170463
0.543056
0.149542
0.476803
0.132397
0.657903
0.115639
0.391319
0.154246
0.568277
0.162172
0.509057
0.168012
0.66201
0.156381
0.50686
0.129512
0.5855
0.119119
0.231436
0.201087
0.302808
0.268408
0.56498
0.134474
0.539786
0.145326
0.501515
0.13729
0.546958
0.185209
0.526116
0.152229
0.473711
0.147885
0.53467
0.193274
0.238468
0.21699
0.470488
0.140087
0.494863
0.147586
0.583196
0.128496
0.50063
0.136021
0.581534
0.132832
0.551727
0.11297
0.385504
0.148874
0.540078
0.148903
0.474171
0.154001
0.37709
0.205915
0.526944
0.138007
0.465643
0.174881
0.53828
0.127713
0.236056
0.219433
0.534726
0.155141
0.524247
0.156379
0.23722
0.219669
0.468432
0.176774
0.470238
0.193622
0.497724
0.180886
0.519933
0.139188
0.3554
0.212618
0.340018
0.165173
0.476269
0.145403
0.456261
0.160735
0.426142
0.156102
0.278625
0.167434
0.524114
0.169536
0.466748
0.138914
0.385598
0.142018
0.515174
0.146355
0.34647
0.203479
0.437936
0.16356
0.462817
0.145891
0.471497
0.191662
0.465311
0.17944
0.398286
0.193988
0.446448
0.160577
0.444144
0.148351
0.447666
0.136801
0.442008
0.161071
0.404138
0.189408
0.463134
0.139183
0.413542
0.217752
0.249041
0.231283
0.40945
0.193972
0.267767
0.243876
0.405315
0.158732
0.452838
0.158096
0.382338
0.193107
0.395176
0.209233
0.445985
0.175077
0.419994
0.174824
0.351839
0.161583
0.434916
0.195262
0.317411
0.286653
0.368786
0.183112
0.454056
0.17657
0.268213
0.23821
0.39386
0.172752
0.332602
0.223938
0.398558
0.181785
0.447096
0.196593
0.453856
0.162745
0.40405
0.197883
0.412679
0.228002
0.322153
0.192896
0.39235
0.208534
0.329595
0.197157
0.441367
0.149331
0.427398
0.20777
0.375443
0.172965
0.359155
0.227529
0.313105
0.196056
0.377504
0.225084
0.375692
0.223227
0.338563
0.185427
0.420198
0.191932
0.365038
0.232406
0.324938
0.202605
0.357852
0.247549
0.385441
0.185542
0.333058
0.242703
0.436942
0.185119
0.318428
0.276143
0.343271
0.24817
0.435033
0.231001
0.372681
0.222699
0.388038
0.189885
0.368543
0.188938
0.301488
0.263253
0.316081
0.258544
0.388562
0.210371
0.303355
0.266592
0.290449
0.264456
0.359495
0.215696
0.303655
0.273519
0.431048
0.22254
0.357734
0.241616
0.317522
0.294865
0.338337
0.299818
0.351626
0.219355
0.321624
0.288287
0.37583
0.259598
0.330896
0.275656
0.363914
0.249011
0.319256
0.291919
0.362946
0.244025
0.370641
0.26035
0.311787
0.280171
0.308264
0.280695
0.354505
0.249478
0.319955
0.297636
0.313181
0.287029
0.362478
0.257665
0.333938
0.291172
0.326177
0.26931
0.335628
0.281388
0.339165
0.307161
0.332518
0.281197
0.319006
0.277818
0.340968
0.294475
0.365289
0.25487
0.330204
0.287151
0.339599
0.305849
0.345611
0.289152
0.328936
0.306325
0.351876
0.300045
