# vtk DataFile Version 3.0
Tree
ASCII
DATASET POLYDATA
POINTS 326 float
0.019839 0.001786 -0.005
0.019869 0.000917 0.001569
0.0196063 0.00245661 -0.00236047
0.018119 0.008252 0.001185
0.0196831 0.00119442 0.00068413
0.019498 -0.00271 0.009563
0.0197692 0.00198718 -0.00420814
0.017753 -0.009047 0
0.01902 0.00469076 0.000387473
0.018287 0.007238 0.01043
0.0195163 -0.000102025 0.00760208
0.019352 0.002142 0.012707
0.0180378 0.00722565 0.000898521
0.014257 0.013894 0.002044
0.0193223 -0.00171659 0.00919272
0.018166 -0.006605 0.015182
0.0181151 -0.00593914 0.000835155
0.016742 -0.010558 0.007792
0.0175515 0.0079047 0.00607531
0.014613 0.013258 0.009224
0.0173796 -0.00798742 0.000643101
0.01356 -0.014576 0.001074
0.0192383 0.00187319 0.0116242
0.018129 0.005832 0.017735
0.0189333 -0.00280761 0.0131614
0.018924 -0.001423 0.018233
0.0145317 0.0124979 0.00287529
0.010917 0.016529 0.006322
0.0164908 0.00980234 0.00831295
0.015642 0.011135 0.015986
0.0187753 -0.00288336 0.015474
0.017823 -0.006019 0.019899
0.0127214 0.0143556 0.0034735
0.008572 0.017993 0.000501
0.0148129 -0.0121396 0.00256036
0.012578 -0.015287 0.006998
0.0165732 -0.00974217 0.00698513
0.01457 -0.012923 0.012861
0.0152925 -0.0116349 0.0122553
0.014861 -0.011958 0.017413
0.01837 0.00432914 0.0172285
0.017722 0.004989 0.02291
0.0151428 0.0116104 0.0132613
0.012889 0.014356 0.015024
0.0152559 0.0114351 0.0152703
0.014703 0.011547 0.0208
0.0174842 0.00566041 0.0217488
0.016132 0.008141 0.025256
0.0131151 -0.0138974 0.00391331
0.006996 -0.018625 0.003666
0.0114197 0.0157249 0.00575304
0.008966 0.017461 0.011007
0.0128808 0.0139147 0.0143631
0.00964 0.016702 0.015182
0.0150025 -0.0116735 0.0105581
0.010019 -0.016642 0.013308
0.0184175 -0.00362171 0.0179412
0.018056 -0.00211 0.024563
0.0140646 0.0124352 0.0178602
0.011475 0.014911 0.01978
0.0178607 -0.00505078 0.0194765
0.015587 -0.009206 0.025132
0.0169128 -0.00649167 0.0231859
0.017074 -0.005448 0.026261
0.0103771 0.0160492 0.00293671
0.003979 0.019438 0.005372
0.0180768 -0.00163755 0.0231636
0.017717 0.001305 0.027133
0.0121762 -0.0143861 0.0137086
0.010604 -0.015683 0.018667
0.0158832 -0.00835691 0.0239233
0.012873 -0.013029 0.023588
0.0141685 0.0120947 0.019854
0.013576 0.011716 0.026432
0.00920172 -0.0167628 0.00534945
0.006132 -0.018728 0.009325
0.0103343 0.0157831 0.0157933
0.00749 0.017402 0.018535
0.00565763 0.0183718 0.00600195
0.002662 0.019503 0.010405
0.00752446 -0.0179496 0.00387664
0.003996 -0.01952 0
0.00699279 0.0175875 0.00389543
0.000699 0.019903 0.00037
0.00508906 -0.0188499 0.00273523
0.001851 -0.019819 0.003123
0.0124041 0.0138814 0.0195493
0.010158 0.015161 0.024029
0.00404508 0.0189851 0.00988614
0.004178 0.018946 0.013584
0.0168177 0.0065945 0.0241595
0.016104 0.006131 0.0302
0.00445832 0.0187345 0.00723493
0.000201 0.01978 0.007318
0.0169837 -0.00558369 0.0257068
0.016832 -0.003808 0.02999
0.0102546 -0.0156804 0.0158773
0.006661 -0.017897 0.017204
0.0166955 -0.0063824 0.025131
0.015143 -0.0085 0.029337
0.00651847 -0.0181784 0.0091591
0.004004 -0.019011 0.013276
0.0135978 0.0117679 0.0253783
0.012589 0.011356 0.031592
0.00670826 -0.0178999 0.00760003
0.001166 -0.019728 0.007547
0.0130341 -0.0119044 0.0240738
0.009148 -0.015687 0.024844
0.017733 -9.39954e-05 0.0261826
0.016726 0.00035 0.032536
0.00859705 -0.0166213 0.0175909
0.007415 -0.017141 0.02086
0.0105488 0.0147161 0.0235792
0.008345 0.0154 0.028822
0.00267777 -0.0193915 0.00316668
-0.002189 -0.019742 0.004626
0.00900439 0.0154458 0.0252288
0.006922 0.016736 0.024977
0.00136549 0.0192935 0.00820933
-0.001722 0.019536 0.01062
0.00771119 0.0169931 0.0170605
0.003404 0.018717 0.017969
0.0141038 -0.0104694 0.0247832
0.011924 -0.01255 0.029603
0.00163333 0.0190881 0.00220682
-0.003157 0.019639 0.002901
0.00510196 0.0179118 0.0186237
0.003315 0.018304 0.021605
-0.000201087 0.0193482 0.0105781
-0.001583 0.019281 0.014603
0.0167852 0.00149848 0.0305342
0.015499 0.005086 0.034463
0.0166861 -0.00478546 0.0288134
0.015324 -0.005336 0.034741
0.0070231 -0.0174707 0.0174349
0.003301 -0.01877 0.017665
0.015437 -0.00597631 0.0326986
0.014171 -0.008252 0.034221
0.00396707 -0.0188009 0.0115654
0.00028 -0.01945 0.013048
0.0166518 0.000804927 0.0321232
0.016014 7.2e-05 0.035736
-0.00196103 0.019263 0.00181105
-0.005729 0.019083 0
0.0123135 0.0117835 0.0305329
0.010452 0.012412 0.034911
0.000365852 -0.0195012 0.00311736
-0.00445 -0.019499 0
0.00180031 -0.0190471 0.0134163
-0.000611 -0.019124 0.016905
0.00388107 0.0182786 0.0184331
-0.000344 0.018979 0.018525
-0.00156319 -0.0195361 0.00424132
-0.005566 -0.019011 0.006512
0.00742782 -0.0170416 0.0197116
0.003876 -0.018027 0.022698
0.00812139 0.015436 0.0281305
0.006416 0.01545 0.032512
0.0125935 -0.0115234 0.0290126
0.011201 -0.011856 0.03438
0.00101614 0.0194394 0.00794193
-0.00512 0.019119 0.007414
0.0125497 -0.0116668 0.0275815
0.008505 -0.015183 0.029364
0.00757143 0.0161279 0.0252227
0.002785 0.01783 0.025671
-0.00135288 0.0193178 0.0107228
-0.005495 0.018769 0.011531
0.000355555 -0.0190603 0.0144872
-0.003869 -0.018993 0.014337
0.00166136 0.0185249 0.0194785
-0.000425 0.018558 0.022088
-0.00332754 -0.0192294 0.0020049
-0.007321 -0.018533 0.002707
-0.00379136 0.0190892 0.00162712
-0.007768 0.018369 0.00399
0.00535581 -0.0174349 0.0226915
0.004087 -0.01732 0.026941
0.0119421 0.0115383 0.0324955
0.013251 0.00882 0.036108
0.0153371 -0.00536084 0.0341171
0.014941 -0.002815 0.038892
-0.00177447 0.0191197 0.0138081
-0.004241 0.018609 0.017514
0.015801 0.00331415 0.0340538
0.01474 0.003883 0.038614
0.0147129 -0.00703232 0.0339091
0.01343 -0.00783 0.037539
-0.00382707 0.0186763 0.0151304
-0.006991 0.017974 0.015354
-0.000299637 -0.0190144 0.016242
-0.001908 -0.018573 0.020977
0.00468921 0.0169616 0.0265327
0.002748 0.01716 0.029389
-0.00141683 -0.0190634 0.0138561
-0.004157 -0.019212 0.010269
0.00432503 -0.0177103 0.0228536
0.000847 -0.01826 0.023837
0.00324795 0.0174232 0.0260805
-0.000845 0.018088 0.025457
-0.00452961 0.0188554 0.00803154
-0.008271 0.017903 0.009167
0.00964083 -0.0139058 0.0297599
0.007939 -0.01464 0.032815
0.00618339 0.0156127 0.0312256
0.003149 0.016051 0.034177
-0.00477615 0.0185792 0.0116681
-0.008845 0.017307 0.013175
0.00837356 -0.0144973 0.0306772
0.003871 -0.016715 0.03042
0.00544245 0.0155663 0.032695
0.006743 0.014436 0.036029
0.0108665 -0.0121433 0.0333703
0.008415 -0.013262 0.036908
-0.00731307 0.0181397 0.00341672
-0.010688 0.016727 0.004643
0.0150151 0.00302757 0.0377839
0.01451 0.001478 0.040861
-4.81071e-05 0.0184637 0.0210383
-0.004141 0.017986 0.022605
-0.00635586 -0.0184882 0.00313484
-0.009579 -0.017378 0.005238
-0.00651068 0.0183161 0.00236564
-0.010386 0.017026 0.000383
0.012558 0.00967249 0.035822
0.012272 0.008758 0.039215
0.014722 -0.0046025 0.0374634
0.013593 -0.005562 0.040611
-0.00460552 -0.0189559 0.00646361
-0.007854 -0.018064 0.009583
-0.00210675 -0.0186723 0.0180294
-0.005375 -0.018171 0.018567
0.00355727 -0.017467 0.0251619
2e-05 -0.017648 0.027872
0.0118754 0.0107245 0.0349372
0.009574 0.011456 0.039719
0.000852495 0.0175726 0.026682
-0.001799 0.017387 0.028763
0.0101568 -0.0120278 0.0359301
0.010433 -0.010772 0.03948
-0.00440565 0.0184909 0.0166072
-0.006925 0.01752 0.01972
-0.00313639 -0.0188437 0.0143076
-0.007569 -0.01767 0.015879
0.0148666 0.0034895 0.0382321
0.013245 0.005995 0.041015
0.0135859 -0.00769989 0.0369593
0.012069 -0.008439 0.040399
-0.00559578 -0.0186148 0.00221009
-0.010228 -0.017116 0
-0.00622159 0.0178864 0.0157865
-0.009667 0.016457 0.017282
0.00118833 -0.0174366 0.0278087
0.00015 -0.0171 0.030743
0.00283568 0.0170064 0.0289
0.000288 0.016895 0.031723
0.0138959 -0.00478704 0.0401488
0.013062 -0.004165 0.043457
-0.0078315 0.0175171 0.0118521
-0.011038 0.01624 0.010603
-0.00241214 -0.0185245 0.0196829
-0.004785 -0.017865 0.022471
0.0106627 0.0106574 0.038699
0.010832 0.00944 0.041541
0.0136784 -0.0036653 0.0417364
0.013834 -0.001314 0.042983
0.00777077 -0.0146488 0.0319412
0.004906 -0.015304 0.035583
-0.00923647 0.0168774 0.0118794
-0.011683 0.015411 0.014456
-0.00622884 -0.0180006 0.0144533
-0.009115 -0.017174 0.013032
0.0060629 0.0147148 0.0355317
0.006172 0.013817 0.039016
0.012223 -0.00831527 0.0398245
0.010452 -0.009053 0.043261
-0.00738341 -0.0179915 0.00802948
-0.010814 -0.016531 0.008491
-0.010159 0.0166579 0.00424433
-0.01362 0.014462 0.004971
0.00167031 -0.0174975 0.0263979
-0.002645 -0.017778 0.025861
0.00366716 0.0158734 0.0336087
-0.000194 0.016271 0.03467
0.00919008 -0.0125242 0.036813
0.006611 -0.013193 0.040351
-0.0097185 0.0170222 0.00141364
-0.012431 0.015538 0.001798
0.00494206 -0.0157725 0.0313228
0.001264 -0.016517 0.033277
0.00569449 0.0145055 0.0368789
0.003221 0.014951 0.038435
-0.000688498 0.0174614 0.0272307
-0.005041 0.017136 0.026588
-0.00942637 -0.0171042 0.00109783
-0.012659 -0.015361 0.001395
-0.00468118 -0.0181013 0.0188498
-0.007566 -0.017206 0.020345
0.0144027 0.00258215 0.0402814
0.013261 0.002765 0.044066
0.000392594 0.0168374 0.0307498
-0.002978 0.01653 0.03228
0.0116554 -0.00800589 0.041922
0.011714 -0.006578 0.04437
-0.00914962 -0.0172377 0.0043679
-0.01265 -0.015291 0.005135
-0.0043012 -0.0178747 0.0223197
-0.005769 -0.017146 0.025117
0.000213766 -0.0172011 0.029376
-0.003177 -0.016596 0.031668
0.00992443 0.0110557 0.039485
0.007489 0.011962 0.042346
-0.00397704 0.0171466 0.0261045
-0.007459 0.016709 0.023943
0.00691603 -0.0133147 0.0385533
0.004016 -0.014583 0.038985
-0.0118568 0.0155628 0.00559156
-0.013256 0.014629 0.008433
-0.00833574 -0.01723 0.0141975
-0.010455 -0.016193 0.015164
0.0134136 0.0053002 0.0409314
0.011994 0.006377 0.043897
0.00176156 0.0158248 0.0351554
0.000171 0.015359 0.038223
-0.00254012 0.0171844 0.0272263
-0.005693 0.01627 0.030015
LINES 325 975
2 4 1
2 6 2
2 12 3
2 2 4
2 14 5
2 0 6
2 20 7
2 2 8
2 18 9
2 4 10
2 22 11
2 8 12
2 26 13
2 10 14
2 24 15
2 6 16
2 36 17
2 8 18
2 28 19
2 16 20
2 34 21
2 10 22
2 40 23
2 14 24
2 30 25
2 12 26
2 50 27
2 18 28
2 44 29
2 24 30
2 60 31
2 26 32
2 64 33
2 20 34
2 48 35
2 16 36
2 38 37
2 54 38
2 38 39
2 22 40
2 46 41
2 28 42
2 52 43
2 42 44
2 72 45
2 40 46
2 90 47
2 34 48
2 80 49
2 32 50
2 50 51
2 42 52
2 76 53
2 36 54
2 68 55
2 30 56
2 66 57
2 44 58
2 86 59
2 56 60
2 70 61
2 60 62
2 94 63
2 32 64
2 78 65
2 56 66
2 108 67
2 54 68
2 96 69
2 62 70
2 106 71
2 58 72
2 102 73
2 48 74
2 100 75
2 52 76
2 120 77
2 82 78
2 88 79
2 74 80
2 84 81
2 64 82
2 124 83
2 80 84
2 114 85
2 58 86
2 112 87
2 92 88
2 88 89
2 46 90
2 90 91
2 78 92
2 160 93
2 98 94
2 132 95
2 68 96
2 134 97
2 62 98
2 98 99
2 104 100
2 138 101
2 72 102
2 144 103
2 74 104
2 104 105
2 122 106
2 106 107
2 66 108
2 140 109
2 96 110
2 154 111
2 86 112
2 156 113
2 84 114
2 152 115
2 112 116
2 164 117
2 92 118
2 166 119
2 76 120
2 150 121
2 70 122
2 158 123
2 82 124
2 142 125
2 120 126
2 126 127
2 118 128
2 182 129
2 108 130
2 184 131
2 94 132
2 180 133
2 110 134
2 134 135
2 132 136
2 186 137
2 100 138
2 148 139
2 130 140
2 140 141
2 124 142
2 174 143
2 102 144
2 178 145
2 114 146
2 172 147
2 138 148
2 190 149
2 126 150
2 170 151
2 146 152
2 228 153
2 110 154
2 196 155
2 116 156
2 204 157
2 162 158
2 212 159
2 118 160
2 200 161
2 122 162
2 202 163
2 116 164
2 198 165
2 128 166
2 206 167
2 148 168
2 242 169
2 150 170
2 218 171
2 146 172
2 220 173
2 142 174
2 214 175
2 154 176
2 232 177
2 144 178
2 224 179
2 136 180
2 226 181
2 128 182
2 240 183
2 130 184
2 244 185
2 136 186
2 246 187
2 182 188
2 250 189
2 168 190
2 260 191
2 164 192
2 254 193
2 168 194
2 194 195
2 176 196
2 196 197
2 192 198
2 236 199
2 160 200
2 200 201
2 162 202
2 266 203
2 156 204
2 282 205
2 166 206
2 258 207
2 202 208
2 288 209
2 204 210
2 272 211
2 158 212
2 284 213
2 222 214
2 278 215
2 184 216
2 298 217
2 170 218
2 218 219
2 248 220
2 304 221
2 174 222
2 286 223
2 234 224
2 224 225
2 180 226
2 256 227
2 152 228
2 276 229
2 190 230
2 296 231
2 176 232
2 252 233
2 178 234
2 310 235
2 198 236
2 292 237
2 212 238
2 238 239
2 188 240
2 240 241
2 194 242
2 270 243
2 216 244
2 320 245
2 186 246
2 274 247
2 172 248
2 294 249
2 188 250
2 250 251
2 280 252
2 308 253
2 192 254
2 300 255
2 226 256
2 264 257
2 206 258
2 268 259
2 230 260
2 306 261
2 234 262
2 262 263
2 256 264
2 264 265
2 208 266
2 266 267
2 258 268
2 268 269
2 242 270
2 318 271
2 210 272
2 290 273
2 246 274
2 302 275
2 228 276
2 276 277
2 214 278
2 316 279
2 232 280
2 280 281
2 210 282
2 322 283
2 238 284
2 314 285
2 222 286
2 286 287
2 208 288
2 288 289
2 272 290
2 290 291
2 236 292
2 312 293
2 248 294
2 294 295
2 230 296
2 296 297
2 216 298
2 298 299
2 254 300
2 300 301
2 274 302
2 302 303
2 220 304
2 304 305
2 260 306
2 306 307
2 252 308
2 308 309
2 262 310
2 310 311
2 324 312
2 312 313
2 284 314
2 314 315
2 278 316
2 316 317
2 270 318
2 318 319
2 244 320
2 320 321
2 282 322
2 322 323
2 292 324
2 324 325
CELL_DATA 325
SCALARS radius float
LOOKUP_TABLE default
0.106969
1.03556
0.11208
0.766959
0.115796
1.15857
0.12004
0.87039
0.16336
0.766265
0.124298
0.651209
0.130422
0.742226
0.168429
0.763226
0.12266
0.726361
0.162234
0.668777
0.154701
0.344904
0.154218
0.741285
0.157142
0.6501
0.137495
0.723596
0.116105
0.738376
0.123975
0.648346
0.16538
0.667486
0.161569
0.525926
0.151378
0.228068
0.203232
0.339436
0.17081
0.720868
0.118204
0.674617
0.132695
0.328475
0.209884
0.664704
0.123445
0.228311
0.210307
0.407314
0.142531
0.523693
0.174253
0.735995
0.141523
0.673469
0.13779
0.663425
0.143816
0.661979
0.114689
0.638768
0.153682
0.47428
0.153407
0.508858
0.177018
0.537559
0.15641
0.456603
0.138517
0.661507
0.119686
0.403968
0.159232
0.542077
0.170066
0.510388
0.17405
0.635051
0.164225
0.507969
0.134421
0.594641
0.123444
0.242702
0.210876
0.312294
0.276817
0.537928
0.142023
0.503308
0.153361
0.501954
0.142924
0.512678
0.193583
0.529588
0.157876
0.452836
0.15673
0.538914
0.199877
0.249421
0.226956
0.470042
0.146829
0.494505
0.154121
0.592164
0.13382
0.501065
0.141451
0.59037
0.137773
0.520928
0.120923
0.397965
0.153687
0.534106
0.156845
0.459188
0.163001
0.38928
0.212571
0.487533
0.151255
0.464531
0.184676
0.501315
0.137334
0.245744
0.228439
0.496485
0.168159
0.527543
0.162522
0.248637
0.230241
0.452076
0.188054
0.448474
0.206578
0.497819
0.189489
0.522787
0.144889
0.366888
0.219491
0.353592
0.171767
0.473387
0.152746
0.451942
0.168512
0.419611
0.166641
0.294266
0.176833
0.515322
0.179917
0.484108
0.144081
0.379909
0.154273
0.517498
0.154694
0.357669
0.210056
0.429378
0.174649
0.444899
0.156889
0.467877
0.202936
0.442
0.193777
0.393703
0.211871
0.393754
0.187722
0.439458
0.158643
0.394417
0.153612
0.386169
0.19567
0.420693
0.197167
0.48036
0.14436
0.400277
0.227939
0.261619
0.242964
0.424679
0.201187
0.282798
0.257566
0.397831
0.174552
0.447997
0.169542
0.375781
0.214174
0.385166
0.223395
0.439905
0.184301
0.412176
0.191444
0.378361
0.173764
0.428306
0.217708
0.327671
0.295919
0.340854
0.20614
0.433405
0.208395
0.289642
0.257242
0.388052
0.194236
0.34588
0.232878
0.414885
0.189231
0.438847
0.209975
0.426416
0.189684
0.419077
0.205242
0.402889
0.24635
0.299374
0.272416
0.373944
0.225776
0.352463
0.210836
0.383953
0.177227
0.416707
0.219147
0.313314
0.285475
0.383602
0.243017
0.32475
0.203348
0.36574
0.262798
0.366906
0.25206
0.352432
0.193023
0.376187
0.262804
0.346483
0.286214
0.287594
0.264329
0.340761
0.286652
0.364902
0.243599
0.350606
0.25549
0.375575
0.275794
0.33114
0.287167
0.369147
0.266878
0.423877
0.27013
0.347687
0.246464
0.369495
0.258292
0.300907
0.263019
0.321895
0.281071
0.332735
0.272166
0.403014
0.218196
0.319967
0.28119
0.302347
0.27529
0.326435
0.290305
0.314949
0.283693
0.361931
0.297887
0.324829
0.294393
0.330529
0.306944
0.361367
0.320227
0.327374
0.3046
0.333587
0.299009
0.351502
0.296998
0.355839
0.296435
0.33346
0.282828
0.341406
0.312173
0.333694
0.280991
0.384426
0.270033
