# vtk DataFile Version 4.1
vtk output
ASCII
DATASET POLYDATA
POINTS 460 float
0.0571935 0.0534435 0.0266935 0.0576935 0.0539435 0.0271935 0.0576935 0.0514435 0.0169434 
0.0571935 0.0564435 0.0259435 0.0566935 0.0566935 0.0274435 0.0566935 0.0576935 0.0259435 
0.0564435 0.0576935 0.0259435 0.0566935 0.0576935 0.0274435 0.0564435 0.0579435 0.0259435 
0.0556935 0.0581935 0.0276935 0.0561935 0.0561935 0.0166934 0.0556935 0.0574435 0.0164434 
0.0561935 0.0564435 0.0169434 0.0546935 0.0626935 0.0256935 0.0564435 0.0556935 0.0169434 
0.0549435 0.0594435 0.0164434 0.0544435 0.0604435 0.0164434 0.0539435 0.0614435 0.0164434 
0.0541935 0.0614435 0.0169434 0.0531935 0.0624435 0.0161935 0.0546935 0.0619435 0.0191934 
0.0529435 0.0631935 0.0164434 0.0544435 0.0626935 0.0194434 0.0529435 0.0641935 0.0174434 
0.0534435 0.0641935 0.0181934 0.0541935 0.0634435 0.0194434 0.0536935 0.0641935 0.0189434 
0.0534435 0.0644435 0.0189434 0.0496935 0.0669435 0.0149435 0.0524435 0.0649435 0.0169434 
0.0496935 0.0671935 0.0149435 0.0529435 0.0651935 0.0194434 0.0526935 0.0651935 0.0194434 
0.0494435 0.0674435 0.0149435 0.0516935 0.0696935 0.0229434 0.0519435 0.0644435 0.0161935 
0.0516935 0.0711935 0.0246934 0.0516935 0.0656935 0.0176934 0.0491935 0.0679435 0.0151935 
0.0519435 0.0654435 0.0166934 0.0529435 0.0659435 0.0194434 0.0529435 0.0661935 0.0194434 
0.0506935 0.0719435 0.0299435 0.0506935 0.0726935 0.0249434 0.0506935 0.0726935 0.0301935 
0.0481935 0.0694435 0.0156935 0.0521935 0.0674435 0.0196934 0.0471935 0.0701935 0.0154435 
0.0434435 0.0726935 0.0144435 0.0486935 0.0746935 0.0239434 0.0471935 0.0764435 0.0261935 
0.0446935 0.0754435 0.0181934 0.0396935 0.0759435 0.0161935 0.0441935 0.0756935 0.0186934 
0.0411935 0.0764435 0.0176934 0.0456935 0.0781935 0.0256935 0.0404435 0.0766935 0.0171934 
0.0456935 0.0781935 0.0279435 0.0411935 0.0769435 0.0174434 0.0416935 0.0766935 0.0179434 
0.0421935 0.0766935 0.0179434 0.0414435 0.0766935 0.0184434 0.0384435 0.0759435 0.0151935 
0.0379435 0.0756935 0.0146935 0.0379435 0.0756935 0.0151935 0.0411935 0.0769435 0.0186934 
0.0451935 0.0789435 0.0261935 0.0379435 0.0764435 0.0161935 0.0391935 0.0774435 0.0174434 
0.0384435 0.0769435 0.0171934 0.0384435 0.0769435 0.0159435 0.0311935 0.0704435 0.0364435 
0.0451935 0.0789435 0.0279435 0.0376935 0.0764435 0.0159435 0.0446935 0.0791935 0.0256935 
0.0404435 0.0781935 0.0179434 0.0446935 0.0794435 0.0261935 0.0406935 0.0781935 0.0184434 
0.0416935 0.0779435 0.0186934 0.0391935 0.0781935 0.0179434 0.0299435 0.0704435 0.0356935 
0.0391935 0.0784435 0.0176934 0.0444435 0.0794435 0.0254435 0.0371935 0.0776935 0.0176934 
0.0466935 0.0749435 0.0196934 0.0411935 0.0784435 0.0189434 0.0321935 0.0719435 0.0364435 
0.0436935 0.0794435 0.0291935 0.0434435 0.0791935 0.0296935 0.0396935 0.0786935 0.0186934 
0.0399435 0.0786935 0.0186934 0.0411935 0.0771935 0.0326935 0.0441935 0.0796935 0.0276935 
0.0441935 0.0799435 0.0261935 0.0374435 0.0784435 0.0179434 0.0379435 0.0789435 0.0179434 
0.0431935 0.0784435 0.0199434 0.0441935 0.0794435 0.0244434 0.0434435 0.0796935 0.0256935 
0.0299435 0.0724435 0.0354435 0.0299435 0.0726935 0.0356935 0.0431935 0.0796935 0.0256935 
0.0286935 0.0716935 0.0356935 0.0299435 0.0726935 0.0349435 0.0426935 0.0796935 0.0296935 
0.0434435 0.0799435 0.0276935 0.0431935 0.0786935 0.0199434 0.0124435 0.0636935 0.0271935 
0.0296935 0.0729435 0.0346935 0.0299435 0.0731935 0.0349435 0.0121935 0.0636935 0.0271935 
0.0124435 0.0641935 0.0274435 0.0136935 0.0654435 0.0279435 0.0301935 0.0734435 0.0346935 
0.0304435 0.0734435 0.0346935 0.0421935 0.0794435 0.0304435 0.0441935 0.0794435 0.0239434 
0.0134435 0.0649435 0.0276935 0.0404435 0.0791935 0.0316935 0.0401935 0.0796935 0.0196934 
0.0346935 0.0731935 0.0359435 0.0406935 0.0796935 0.0199434 0.0406935 0.0796935 0.0309435 
0.0396935 0.0781935 0.0326935 0.0196934 0.0689435 0.0319435 0.0436935 0.0786935 0.0211934 
0.0291935 0.0736935 0.0344435 0.0316935 0.0739435 0.0351935 0.0391935 0.0784435 0.0321935 
0.0416935 0.0804435 0.0299435 0.0281935 0.0734435 0.0341935 0.0309435 0.0744435 0.0344435 
0.0406935 0.0799435 0.0306935 0.0219434 0.0689435 0.0321935 0.0279435 0.0731935 0.0341935 
0.0386935 0.0781935 0.0321935 0.0421935 0.0806935 0.0249434 0.0439435 0.0789435 0.0214434 
0.0276935 0.0734435 0.0339435 0.0351935 0.0734435 0.0356935 0.0204434 0.0696935 0.0316935 
0.0416935 0.0801935 0.0211934 0.0421935 0.0799435 0.0214434 0.0381935 0.0806935 0.0206934 
0.0386935 0.0776935 0.0331935 0.0384435 0.0806935 0.0206934 0.0416935 0.0801935 0.0214434 
0.0394435 0.0801935 0.0306935 0.0384435 0.0811935 0.0206934 0.0224434 0.0699435 0.0321935 
0.0379435 0.0784435 0.0329435 0.0414435 0.0811935 0.0274435 0.0129435 0.0684435 0.0254435 
0.0134435 0.0689435 0.0256935 0.0376935 0.0784435 0.0329435 0.0211934 0.0701935 0.0319435 
0.0189434 0.0709435 0.0301935 0.0414435 0.0806935 0.0219434 0.0374435 0.0789435 0.0324435 
0.0374435 0.0779435 0.0329435 0.0376935 0.0776935 0.0331935 0.0434435 0.0796935 0.0224434 
0.0244434 0.0729435 0.0326935 0.0371935 0.0786935 0.0326935 0.0439435 0.0789435 0.0221934 
0.0416935 0.0806935 0.0224434 0.0369435 0.0791935 0.0321935 0.0369435 0.0786935 0.0326935 
0.0216934 0.0709435 0.0319435 0.0129435 0.0689435 0.0246934 0.0379435 0.0819435 0.0209434 
0.0381935 0.0819435 0.0211934 0.0249434 0.0736935 0.0321935 0.0326935 0.0766935 0.0331935 
0.0366935 0.0791935 0.0319435 0.0181934 0.0716935 0.0291935 0.0409435 0.0814435 0.0261935 
0.0391935 0.0821935 0.0211934 0.0126935 0.0686935 0.0244434 0.0116935 0.0671935 0.0231934 
0.0156935 0.0704435 0.0274435 0.0269435 0.0731935 0.0336935 0.0339435 0.0766935 0.0336935 
0.0131935 0.0696935 0.0241934 0.0136935 0.0696935 0.0241934 0.0116935 0.0674435 0.0229434 
0.0351935 0.0739435 0.0361935 0.0241934 0.0739435 0.0319435 0.0334435 0.0771935 0.0331935 
0.0376935 0.0804435 0.0306935 0.0371935 0.0801935 0.0311935 0.0364435 0.0791935 0.0319435 
0.0214434 0.0714435 0.0316935 0.0396935 0.0819435 0.0266935 0.0396935 0.0819435 0.0269435 
0.0151935 0.0706935 0.0266935 0.0234434 0.0736935 0.0316935 0.0246934 0.0744435 0.0321935 
0.0386935 0.0806935 0.0304435 0.0271935 0.0734435 0.0331935 0.0191934 0.0721935 0.0296935 
0.0174434 0.0716935 0.0286935 0.0184434 0.0721935 0.0291935 0.0189434 0.0721935 0.0294435 
0.0161935 0.0706935 0.0279435 0.0366935 0.0826935 0.0214434 0.0359435 0.0744435 0.0356935 
0.0304435 0.0774435 0.0326935 0.0296935 0.0764435 0.0331935 0.0296935 0.0761935 0.0334435 
0.0361935 0.0794435 0.0316935 0.0189434 0.0724435 0.0291935 0.0386935 0.0816935 0.0284435 
0.0386935 0.0814435 0.0286935 0.0134435 0.0704435 0.0236934 0.0136935 0.0706935 0.0239434 
0.0421935 0.0806935 0.0236934 0.0341935 0.0826935 0.0211934 0.0341935 0.0829435 0.0206934 
0.0306935 0.0776935 0.0324435 0.0354435 0.0829435 0.0219434 0.0359435 0.0831935 0.0214434 
0.0149435 0.0711935 0.0261935 0.0359435 0.0746935 0.0356935 0.0244434 0.0749435 0.0319435 
0.0214434 0.0721935 0.0311935 0.0139435 0.0711935 0.0236934 0.0121935 0.0681935 0.0211934 
0.0356935 0.0829435 0.0221934 0.0334435 0.0779435 0.0329435 0.0396935 0.0819435 0.0231934 
0.0311935 0.0801935 0.0186934 0.0154435 0.0716935 0.0261935 0.0116935 0.0684435 0.0206934 
0.0119435 0.0684435 0.0209434 0.0229434 0.0741935 0.0311935 0.0299435 0.0776935 0.0321935 
0.0294435 0.0771935 0.0324435 0.0314435 0.0784435 0.0316935 0.0276935 0.0746935 0.0331935 
0.0209434 0.0726935 0.0306935 0.0381935 0.0824435 0.0271935 0.0379435 0.0821935 0.0279435 
0.0391935 0.0821935 0.0234434 0.0319435 0.0829435 0.0201934 0.0331935 0.0784435 0.0326935 
0.0379435 0.0814435 0.0294435 0.0134435 0.0704435 0.0216934 0.0144435 0.0721935 0.0234434 
0.0389435 0.0824435 0.0236934 0.0129435 0.0694435 0.0206934 0.0149435 0.0719435 0.0254435 
0.0214434 0.0731935 0.0306935 0.0374435 0.0824435 0.0274435 0.0331935 0.0834435 0.0221934 
0.0351935 0.0834435 0.0229434 0.0149435 0.0721935 0.0251935 0.0311935 0.0791935 0.0314435 
0.0144435 0.0724435 0.0231934 0.0151935 0.0724435 0.0251935 0.0219434 0.0734435 0.0309435 
0.0161935 0.0724435 0.0266935 0.0291935 0.0781935 0.0316935 0.0371935 0.0811935 0.0296935 
0.0134435 0.0716935 0.0214434 0.0136935 0.0701935 0.0201934 0.0326935 0.0794435 0.0314435 
0.0364435 0.0834435 0.0236934 0.0134435 0.0699435 0.0196934 0.0366935 0.0814435 0.0294435 
0.0196934 0.0749435 0.0281935 0.0139435 0.0716935 0.0211934 0.0141935 0.0719435 0.0211934 
0.0299435 0.0816935 0.0194434 0.0214434 0.0741935 0.0299435 0.0361935 0.0824435 0.0279435 
0.0369435 0.0829435 0.0246934 0.0286935 0.0801935 0.0181934 0.0139435 0.0721935 0.0209434 
0.0359435 0.0824435 0.0276935 0.0401935 0.0819435 0.0236934 0.0296935 0.0816935 0.0196934 
0.0304435 0.0831935 0.0221934 0.0216934 0.0744435 0.0301935 0.0356935 0.0824435 0.0279435 
0.0146935 0.0721935 0.0204434 0.0209434 0.0746935 0.0299435 0.0149435 0.0729435 0.0211934 
0.0261935 0.0766935 0.0316935 0.0351935 0.0821935 0.0284435 0.0356935 0.0829435 0.0274435 
0.0199434 0.0756935 0.0279435 0.0139435 0.0701935 0.0196934 0.0274435 0.0796935 0.0179434 
0.0166934 0.0734435 0.0261935 0.0151935 0.0729435 0.0206934 0.0296935 0.0824435 0.0206934 
0.0144435 0.0704435 0.0194434 0.0154435 0.0726935 0.0199434 0.0351935 0.0829435 0.0271935 
0.0191934 0.0754435 0.0266935 0.0154435 0.0724435 0.0194434 0.0281935 0.0811935 0.0194434 
0.0154435 0.0714435 0.0189434 0.0354435 0.0809435 0.0296935 0.0154435 0.0724435 0.0189434 
0.0186934 0.0756935 0.0264435 0.0201934 0.0764435 0.0274435 0.0289435 0.0826935 0.0211934 
0.0264435 0.0799435 0.0184434 0.0156935 0.0744435 0.0211934 0.0156935 0.0719435 0.0184434 
0.0266935 0.0774435 0.0306935 0.0349435 0.0831935 0.0259435 0.0336935 0.0821935 0.0284435 
0.0286935 0.0824435 0.0211934 0.0159435 0.0741935 0.0204434 0.0164434 0.0739435 0.0201934 
0.0161935 0.0721935 0.0181934 0.0211934 0.0759435 0.0291935 0.0269435 0.0814435 0.0196934 
0.0284435 0.0826935 0.0219434 0.0266935 0.0814435 0.0196934 0.0254435 0.0799435 0.0186934 
0.0286935 0.0829435 0.0221934 0.0201934 0.0776935 0.0261935 0.0269435 0.0784435 0.0304435 
0.0276935 0.0781935 0.0306935 0.0264435 0.0814435 0.0201934 0.0254435 0.0806935 0.0196934 
0.0256935 0.0809435 0.0201934 0.0251935 0.0801935 0.0194434 0.0196934 0.0781935 0.0241934 
0.0211934 0.0781935 0.0264435 0.0266935 0.0821935 0.0216934 0.0244434 0.0801935 0.0196934 
0.0259435 0.0786935 0.0296935 0.0279435 0.0789435 0.0301935 0.0211934 0.0786935 0.0259435 
0.0264435 0.0791935 0.0296935 0.0244434 0.0806935 0.0204434 0.0236934 0.0801935 0.0196934 
0.0234434 0.0799435 0.0201934 0.0236934 0.0804435 0.0206934 0.0214434 0.0794435 0.0239434 
0.0251935 0.0816935 0.0224434 0.0256935 0.0819435 0.0226934 0.0231934 0.0804435 0.0211934 
0.0234434 0.0806935 0.0214434 0.0234434 0.0809435 0.0214434 0.0231934 0.0804435 0.0214434 
0.0236934 0.0811935 0.0221934 0.0236934 0.0814435 0.0221934 0.0264435 0.0824435 0.0229434 
0.0206934 0.0794435 0.0211934 0.0204434 0.0786935 0.0214434 0.0186934 0.0741935 0.0171934 
0.0184434 0.0739435 0.0171934 0.0179434 0.0734435 0.0174434 0.0176934 0.0734435 0.0176934 
0.0509435 0.0609435 0.00969345 0.0501935 0.0616935 0.00944345 0.0499435 0.0619435 0.00944345 
0.0491935 0.0621935 0.00944345 0.0491935 0.0639435 0.0116935 0.0491935 0.0641935 0.0104435 
0.0481935 0.0639435 0.00994345 0.0491935 0.0641935 0.00844345 0.0481935 0.0669435 0.0124435 
0.0474435 0.0666935 0.00944345 0.0466935 0.0676935 0.0116935 0.0461935 0.0676935 0.0116935 
0.0461935 0.0684435 0.0114435 0.0456935 0.0684435 0.0116935 0.0459435 0.0694435 0.0129435 
0.0459435 0.0694435 0.0124435 0.0459435 0.0696935 0.0114435 0.0456935 0.0699435 0.0126935 
0.0456935 0.0704435 0.0141935 0.0451935 0.0701935 0.0131935 0.0454435 0.0704435 0.0119435 
0.0451935 0.0704435 0.0116935 0.0459435 0.0706935 0.0106935 0.0466935 0.0699435 0.00969345 
0.0444435 0.0719435 0.0119435 0.0424435 0.0734435 0.0134435 0.0406935 0.0746935 0.0139435 
0.0419435 0.0751935 0.0116935 0.0386935 0.0759435 0.0139435 0.0411935 0.0756935 0.0121935 
0.0586935 0.0499435 0.0196934 0.0581935 0.0521935 0.0204434 0.0576935 0.0539435 0.0204434 
0.0574435 0.0549435 0.0201934 0.0571935 0.0556935 0.0206934 0.0571935 0.0564435 0.0224434 
0.0566935 0.0571935 0.0201934 0.0556935 0.0596935 0.0196934 0.0549435 0.0611935 0.0194434 
0.0576935 0.0546935 0.0229434 0.0579435 0.0536935 0.0239434 0.0561935 0.0594435 0.0224434 
0.0554435 0.0609435 0.0221934 0.0546935 0.0631935 0.0221934 0.0539435 0.0646935 0.0221934 
0.0531935 0.0664435 0.0219434 0.0529435 0.0669435 0.0219434 0.0486935 0.0704435 0.0171934 
0.0471935 0.0721935 0.0174434 0.0461935 0.0739435 0.0181934 0.0479435 0.0749435 0.0211934 
0.0479435 0.0746935 0.0214434 0.0471935 0.0756935 0.0214434 0.0469435 0.0759435 0.0211934 
0.0466935 0.0759435 0.0211934 0.0449435 0.0779435 0.0219434 0.0466935 0.0771935 0.0286935 
0.0484435 0.0751935 0.0289435 0.0496935 0.0736935 0.0289435 0.0574435 0.0546935 0.0251935 
0.0561935 0.0591935 0.0259435 0.0556935 0.0614435 0.0256935 0.0541935 0.0649435 0.0251935 
0.0529435 0.0679435 0.0244434 0.0469435 0.0704435 0.0151935 0.0464435 0.0701935 0.0146935 
0.0449435 0.0711935 0.0139435 0.0436935 0.0719435 0.0134435 0.0436935 0.0731935 0.0154435 
0.0399435 0.0751935 0.0146935 0.0399435 0.0759435 0.0131935 0.0326935 0.0826935 0.0266935 
0.0321935 0.0824435 0.0274435 0.0314435 0.0821935 0.0276935 0.0316935 0.0819435 0.0284435 
0.0309435 0.0814435 0.0289435 0.0304435 0.0814435 0.0286935 0.0291935 0.0811935 0.0286935 
0.0289435 0.0806935 0.0289435 0.0276935 0.0804435 0.0286935 0.0269435 0.0801935 0.0286935 
0.0259435 0.0804435 0.0276935 0.0261935 0.0811935 0.0264435 0.0266935 0.0819435 0.0254435 
0.0254435 0.0809435 0.0259435 0.0246934 0.0801935 0.0269435 0.0249434 0.0796935 0.0281935 
0.0249434 0.0789435 0.0289435 0.0281935 0.0826935 0.0234434 0.0269435 0.0821935 0.0241934 
0.0256935 0.0816935 0.0246934 0.0246934 0.0811935 0.0246934 0.0241934 0.0811935 0.0249434 
0.0234434 0.0799435 0.0259435 0.0231934 0.0799435 0.0259435 0.0246934 0.0809435 0.0251935 
0.0266935 0.0819435 0.0254435 0.0254435 0.0809435 0.0259435 0.0246934 0.0801935 0.0269435 
0.0216934 0.0789435 0.0259435 

VERTICES 460 920
1 0 
1 1 
1 2 
1 3 
1 4 
1 5 
1 6 
1 7 
1 8 
1 9 
1 10 
1 11 
1 12 
1 13 
1 14 
1 15 
1 16 
1 17 
1 18 
1 19 
1 20 
1 21 
1 22 
1 23 
1 24 
1 25 
1 26 
1 27 
1 28 
1 29 
1 30 
1 31 
1 32 
1 33 
1 34 
1 35 
1 36 
1 37 
1 38 
1 39 
1 40 
1 41 
1 42 
1 43 
1 44 
1 45 
1 46 
1 47 
1 48 
1 49 
1 50 
1 51 
1 52 
1 53 
1 54 
1 55 
1 56 
1 57 
1 58 
1 59 
1 60 
1 61 
1 62 
1 63 
1 64 
1 65 
1 66 
1 67 
1 68 
1 69 
1 70 
1 71 
1 72 
1 73 
1 74 
1 75 
1 76 
1 77 
1 78 
1 79 
1 80 
1 81 
1 82 
1 83 
1 84 
1 85 
1 86 
1 87 
1 88 
1 89 
1 90 
1 91 
1 92 
1 93 
1 94 
1 95 
1 96 
1 97 
1 98 
1 99 
1 100 
1 101 
1 102 
1 103 
1 104 
1 105 
1 106 
1 107 
1 108 
1 109 
1 110 
1 111 
1 112 
1 113 
1 114 
1 115 
1 116 
1 117 
1 118 
1 119 
1 120 
1 121 
1 122 
1 123 
1 124 
1 125 
1 126 
1 127 
1 128 
1 129 
1 130 
1 131 
1 132 
1 133 
1 134 
1 135 
1 136 
1 137 
1 138 
1 139 
1 140 
1 141 
1 142 
1 143 
1 144 
1 145 
1 146 
1 147 
1 148 
1 149 
1 150 
1 151 
1 152 
1 153 
1 154 
1 155 
1 156 
1 157 
1 158 
1 159 
1 160 
1 161 
1 162 
1 163 
1 164 
1 165 
1 166 
1 167 
1 168 
1 169 
1 170 
1 171 
1 172 
1 173 
1 174 
1 175 
1 176 
1 177 
1 178 
1 179 
1 180 
1 181 
1 182 
1 183 
1 184 
1 185 
1 186 
1 187 
1 188 
1 189 
1 190 
1 191 
1 192 
1 193 
1 194 
1 195 
1 196 
1 197 
1 198 
1 199 
1 200 
1 201 
1 202 
1 203 
1 204 
1 205 
1 206 
1 207 
1 208 
1 209 
1 210 
1 211 
1 212 
1 213 
1 214 
1 215 
1 216 
1 217 
1 218 
1 219 
1 220 
1 221 
1 222 
1 223 
1 224 
1 225 
1 226 
1 227 
1 228 
1 229 
1 230 
1 231 
1 232 
1 233 
1 234 
1 235 
1 236 
1 237 
1 238 
1 239 
1 240 
1 241 
1 242 
1 243 
1 244 
1 245 
1 246 
1 247 
1 248 
1 249 
1 250 
1 251 
1 252 
1 253 
1 254 
1 255 
1 256 
1 257 
1 258 
1 259 
1 260 
1 261 
1 262 
1 263 
1 264 
1 265 
1 266 
1 267 
1 268 
1 269 
1 270 
1 271 
1 272 
1 273 
1 274 
1 275 
1 276 
1 277 
1 278 
1 279 
1 280 
1 281 
1 282 
1 283 
1 284 
1 285 
1 286 
1 287 
1 288 
1 289 
1 290 
1 291 
1 292 
1 293 
1 294 
1 295 
1 296 
1 297 
1 298 
1 299 
1 300 
1 301 
1 302 
1 303 
1 304 
1 305 
1 306 
1 307 
1 308 
1 309 
1 310 
1 311 
1 312 
1 313 
1 314 
1 315 
1 316 
1 317 
1 318 
1 319 
1 320 
1 321 
1 322 
1 323 
1 324 
1 325 
1 326 
1 327 
1 328 
1 329 
1 330 
1 331 
1 332 
1 333 
1 334 
1 335 
1 336 
1 337 
1 338 
1 339 
1 340 
1 341 
1 342 
1 343 
1 344 
1 345 
1 346 
1 347 
1 348 
1 349 
1 350 
1 351 
1 352 
1 353 
1 354 
1 355 
1 356 
1 357 
1 358 
1 359 
1 360 
1 361 
1 362 
1 363 
1 364 
1 365 
1 366 
1 367 
1 368 
1 369 
1 370 
1 371 
1 372 
1 373 
1 374 
1 375 
1 376 
1 377 
1 378 
1 379 
1 380 
1 381 
1 382 
1 383 
1 384 
1 385 
1 386 
1 387 
1 388 
1 389 
1 390 
1 391 
1 392 
1 393 
1 394 
1 395 
1 396 
1 397 
1 398 
1 399 
1 400 
1 401 
1 402 
1 403 
1 404 
1 405 
1 406 
1 407 
1 408 
1 409 
1 410 
1 411 
1 412 
1 413 
1 414 
1 415 
1 416 
1 417 
1 418 
1 419 
1 420 
1 421 
1 422 
1 423 
1 424 
1 425 
1 426 
1 427 
1 428 
1 429 
1 430 
1 431 
1 432 
1 433 
1 434 
1 435 
1 436 
1 437 
1 438 
1 439 
1 440 
1 441 
1 442 
1 443 
1 444 
1 445 
1 446 
1 447 
1 448 
1 449 
1 450 
1 451 
1 452 
1 453 
1 454 
1 455 
1 456 
1 457 
1 458 
1 459 

POINT_DATA 460
FIELD FieldData 1
scalars 1 460 float
37 37 24.5 35 35 35 35 35.5 35 
41 40 41 42.5 53.5 35.5 34 33.5 33.5 
33.5 34.5 34.5 34.5 39.5 34.5 34.5 39.5 34.5 
34.5 42 35 42 34.5 34.5 42 43.5 39 
41.5 35 42 40 34.5 35 53.5 41.5 55.5 
48 39.5 52.5 67 53 60 57.5 60 57.5 
61 57.5 61 60 61.5 61 57.5 60 60.5 
60.5 60.5 60 53.5 60.5 60 60 60.5 83 
57.5 60.5 53.5 62 53.5 62 60 60.5 82 
60.5 53.5 60.5 58.5 60 79 59 62.5 62 
62 64 54 53 61 61 57 53.5 53 
81 81 53 82.5 81 58 54 57 94 
81 81 94 94 94.5 79.5 79.5 59.5 57.5 
94.5 63.5 59.5 68.5 59.5 59.5 64 90 57 
81.5 76 65.5 58.5 81.5 81 59.5 89.5 81 
65.5 57.5 57 81.5 68.5 90 56.5 56.5 59 
65 59 56.5 64.5 59 90 67 59 94.5 
94 67 90 85 57.5 67 68.5 68.5 57 
85.5 67 57 57.5 67 67 89.5 94 59.5 
59.5 83.5 73 67 85 59.5 59 94 102.5 
97 83.5 76.5 93.5 93.5 98.5 68.5 83.5 73 
67.5 67 67 90 65.5 65.5 97 84 83 
65.5 84 84.5 85.5 84.5 84.5 91.5 61.5 68.5 
73.5 80 80 67 84.5 66 65 93 93 
57.5 67 67.5 73.5 63.5 66 97 68.5 83 
83.5 92 99.5 63.5 73 64 78 97 99 
99 84 73.5 77 72.5 84.5 83.5 63 62.5 
63.5 73.5 72.5 66.5 92 95 63.5 96.5 97 
83.5 63 69 63.5 97.5 73 95 97.5 83.5 
91 73.5 63 92.5 95.5 72 63.5 95.5 63 
83.5 92.5 92.5 75 83.5 59 63 83 92.5 
59 64 75 74.5 83.5 59 91 83.5 91 
78.5 59 59 84.5 95.5 85.5 93 91 74.5 
95.5 92.5 59 83.5 92.5 78.5 96.5 62 95 
83.5 83.5 74.5 81 92 95.5 78 62 59.5 
75 92 92 95.5 84.5 79.5 75.5 79.5 81 
76 82.5 77.5 76.5 79.5 79.5 79.5 81.5 84.5 
89.5 76.5 81.5 78.5 76.5 85.5 83.5 78.5 80.5 
80.5 78.5 84 79 80.5 78.5 78.5 78.5 78.5 
78.5 78.5 81 83.5 86 100.5 100.5 99 99 
33 41.5 41.5 41.5 48.5 48.5 48.5 48.5 46.5 
51.5 56.5 56.5 57 57 56.5 56.5 58 57.5 
56.5 58.5 58.5 58.5 58.5 58.5 60 64 63.5 
59 61 59.5 33.5 35.5 37 37 43 44 
42.5 44 39.5 42 42.5 48 48.5 45 43 
40.5 40.5 54 61.5 64 60.5 60.5 62 62 
64 64 63 60 54.5 36 39.5 47 49 
50 52.5 56 59.5 66 67 61 60 63.5 
67.5 68 68 75 76 78.5 78.5 81.5 83.5 
88 89.5 85 89.5 91.5 88.5 82.5 80 84.5 
85.5 83.5 83.5 90.5 90.5 83.5 85 89.5 91.5 
89.5 
METADATA
INFORMATION 0

