# vtk DataFile Version 4.2
vtk output
ASCII
DATASET POLYDATA
POINTS 3799 float
-0.004 0.02 0.0265 -0.00425 0.02 0.02625 -0.00375 0.0195 0.026 
-0.004 0.01975 0.026 -0.00425 0.01975 0.026 -0.0045 0.0195 0.02575 
-0.005 0.0195 0.02575 -0.00525 0.0195 0.02575 -0.0055 0.0195 0.02575 
-0.00225 0.01925 0.0255 -0.00475 0.01925 0.0255 -0.0025 0.019 0.02525 
-0.00275 0.01875 0.02525 -0.00375 0.019 0.02525 -0.00425 0.019 0.02525 
-0.0045 0.019 0.02525 -0.003 0.0185 0.025 -0.004 0.01875 0.025 
-0.00325 0.01825 0.02475 -0.0035 0.0185 0.02475 -0.00375 0.0185 0.02475 
-0.004 0.0185 0.02475 -0.00225 0.01775 0.0245 -0.0025 0.01775 0.0245 
-0.003 0.018 0.0245 -0.00425 0.01825 0.0245 -0.00175 0.01775 0.02425 
-0.002 0.01775 0.02425 -0.00275 0.018 0.02425 -0.0045 0.018 0.02425 
-0.00175 0.01775 0.024 -0.00425 0.018 0.024 -0.00175 0.01775 0.02375 
-0.00425 0.018 0.02375 -0.00075 0.0175 0.0235 -0.001 0.0175 0.0235 
-0.00125 0.0175 0.0235 -0.0015 0.0175 0.0235 -0.00425 0.018 0.0235 
-0.00075 0.0175 0.02325 -0.00425 0.018 0.02325 -0.0045 0.018 0.02325 
-0.0005 0.01725 0.023 -0.004 0.018 0.023 -0.00475 0.018 0.023 
-0.016 -0.00425 0.023 -0.0005 0.01725 0.02275 -0.00375 0.018 0.02275 
-0.005 0.018 0.02275 -0.016 -0.00425 0.02275 -0.0005 0.017 0.0225 
-0.00375 0.01825 0.0225 -0.00525 0.018 0.0225 -0.01525 -0.004 0.0225 
-0.0155 -0.004 0.0225 -0.01575 -0.00425 0.0225 -0.0005 0.017 0.02225 
-0.00375 0.01825 0.02225 -0.00525 0.018 0.02225 -0.015 -0.004 0.02225 
0.00025 0.017 0.022 6.93889e-18 0.017 0.022 -0.00025 0.017 0.022 
-0.0035 0.018 0.022 -0.00525 0.018 0.022 -0.01475 -0.00425 0.022 
0.0005 0.01675 0.02175 -0.00325 0.018 0.02175 -0.00525 0.018 0.02175 
-0.0145 -0.00425 0.02175 0.00125 0.0165 0.0215 0.00075 0.0165 0.0215 
-0.003 0.018 0.0215 -0.00525 0.018 0.0215 -0.01425 -0.004 0.0215 
0.001 0.0165 0.02125 -0.00275 0.01775 0.02125 -0.0055 0.018 0.02125 
-0.01425 -0.004 0.02125 0.00125 0.01625 0.021 -0.003 0.01775 0.021 
-0.0055 0.018 0.021 -0.0125 0.0025 0.021 -0.01275 0.0025 0.021 
-0.01425 -0.004 0.021 0.008 -0.00675 0.02075 0.00775 -0.00675 0.02075 
0.0075 -0.00675 0.02075 0.00725 -0.00675 0.02075 0.00275 0.01575 0.02075 
0.0025 0.01575 0.02075 0.00175 0.016 0.02075 0.0015 0.016 0.02075 
-0.003 0.01775 0.02075 -0.0055 0.01775 0.02075 -0.013 0.00275 0.02075 
-0.01425 -0.004 0.02075 0.00975 -0.001 0.0205 0.00825 -0.00625 0.0205 
0.008 -0.0065 0.0205 0.00225 0.0155 0.0205 0.00175 0.01575 0.0205 
0.00125 0.016 0.0205 -0.00275 0.0175 0.0205 -0.0055 0.01775 0.0205 
-0.013 0.00275 0.0205 -0.0145 -0.00425 0.0205 0.0095 -0.00125 0.02025 
0.00925 -0.001 0.02025 0.00925 -0.00075 0.02025 0.00875 -0.00575 0.02025 
0.00825 -0.006 0.02025 0.00225 0.0155 0.02025 0.002 0.0155 0.02025 
-0.00225 0.0175 0.02025 -0.0025 0.0175 0.02025 -0.003 0.0175 0.02025 
-0.00575 0.0175 0.02025 -0.013 0.003 0.02025 -0.013 0.00325 0.02025 
-0.013 0.0035 0.02025 -0.0145 -0.005 0.02025 -0.0145 -0.00475 0.02025 
-0.0145 -0.0045 0.02025 0.0095 -0.00125 0.02 0.0085 -0.00575 0.02 
0.00375 0.01475 0.02 0.0025 0.01525 0.02 0.00175 0.0155 0.02 
0.0015 0.0155 0.02 -0.00175 0.017 0.02 -0.002 0.01725 0.02 
-0.00325 0.0175 0.02 -0.0035 0.0175 0.02 -0.00575 0.0175 0.02 
-0.01325 0.00375 0.02 -0.01325 0.004 0.02 -0.0145 -0.00425 0.02 
0.0095 -0.002 0.01975 0.0095 -0.00175 0.01975 0.0095 -0.0015 0.01975 
0.00925 -0.00225 0.01975 0.0085 -0.0055 0.01975 0.0085 -0.00525 0.01975 
0.0035 0.0145 0.01975 0.00275 0.015 0.01975 -0.00125 0.017 0.01975 
-0.0015 0.017 0.01975 -0.00275 0.01675 0.01975 -0.003 0.017 0.01975 
-0.003 0.01725 0.01975 -0.00375 0.0175 0.01975 -0.006 0.0175 0.01975 
-0.013 0.00425 0.01975 -0.013 0.0045 0.01975 -0.0145 -0.004 0.01975 
0.009 -0.003 0.0195 0.009 -0.00275 0.0195 0.009 -0.0025 0.0195 
0.0085 -0.005 0.0195 0.0065 -0.01125 0.0195 0.0065 -0.011 0.0195 
0.00325 0.0145 0.0195 0.003 0.01475 0.0195 -0.00125 0.017 0.0195 
-0.00375 0.0175 0.0195 -0.00625 0.0175 0.0195 -0.00675 0.017 0.0195 
-0.01325 0.00475 0.0195 -0.0145 -0.00375 0.0195 0.009 -0.00375 0.01925 
0.009 -0.0035 0.01925 0.009 -0.00325 0.01925 0.00875 -0.00475 0.01925 
0.00625 -0.0115 0.01925 0.006 -0.01175 0.01925 0.00325 0.0145 0.01925 
-0.00025 0.0165 0.01925 -0.00075 0.0165 0.01925 -0.001 0.0165 0.01925 
-0.00125 0.01675 0.01925 -0.00375 0.01725 0.01925 -0.00625 0.01725 0.01925 
-0.0065 0.017 0.01925 -0.01325 0.005 0.01925 -0.0145 -0.0035 0.01925 
0.009 -0.0045 0.019 0.009 -0.004 0.019 0.006 -0.012 0.019 
0.00525 0.0135 0.019 0.0035 0.01425 0.019 0.0005 0.016 0.019 
6.93889e-18 0.016 0.019 -0.0005 0.0165 0.019 -0.00125 0.0165 0.019 
-0.00375 0.01725 0.019 -0.0065 0.017 0.019 -0.01225 0.00525 0.019 
-0.013 0.00525 0.019 -0.0145 -0.00325 0.019 0.009 -0.00425 0.01875 
0.006 -0.01225 0.01875 0.00575 -0.0125 0.01875 0.0055 -0.01275 0.01875 
0.005 0.01325 0.01875 0.0035 0.014 0.01875 0.00025 0.016 0.01875 
-0.00025 0.01625 0.01875 -0.0015 0.0165 0.01875 -0.00375 0.017 0.01875 
-0.0065 0.01675 0.01875 -0.0125 0.00525 0.01875 -0.01275 0.00525 0.01875 
-0.013 0.00525 0.01875 -0.01475 -0.00325 0.01875 0.009 -0.00425 0.0185 
0.00575 0.0125 0.0185 0.0055 -0.013 0.0185 0.00475 0.013 0.0185 
0.00375 0.014 0.0185 0.0005 0.01575 0.0185 -0.00175 0.0165 0.0185 
-0.00375 0.017 0.0185 -0.00625 0.017 0.0185 -0.00675 0.0165 0.0185 
-0.01325 0.00525 0.0185 -0.01475 -0.00325 0.0185 0.00925 -0.00425 0.01825 
0.00825 -0.007 0.01825 0.0055 0.0125 0.01825 0.00525 -0.013 0.01825 
0.005 0.01275 0.01825 0.0045 0.01325 0.01825 0.00425 0.0135 0.01825 
0.004 0.01375 0.01825 0.00075 0.0155 0.01825 -0.00175 0.0165 0.01825 
-0.00375 0.017 0.01825 -0.0055 0.01625 0.01825 -0.00575 0.01625 0.01825 
-0.006 0.0165 0.01825 -0.00625 0.01675 0.01825 -0.007 0.0165 0.01825 
-0.00725 0.0165 0.01825 -0.01325 0.0055 0.01825 -0.01475 -0.003 0.01825 
0.00925 -0.004 0.018 0.0085 -0.00675 0.018 0.0085 -0.0065 0.018 
0.0085 -0.00625 0.018 0.008 -0.00775 0.018 0.008 -0.0075 0.018 
0.008 -0.00725 0.018 0.00675 0.012 0.018 0.006 0.012 0.018 
0.00575 0.01225 0.018 0.00525 -0.013 0.018 0.00525 0.0125 0.018 
0.001 0.01525 0.018 -0.0015 0.01625 0.018 -0.00375 0.01675 0.018 
-0.0075 0.01625 0.018 -0.0135 0.00525 0.018 -0.01475 -0.00275 0.018 
-0.01475 -0.0025 0.018 0.0095 -0.00375 0.01775 0.00925 -0.00575 0.01775 
0.009 -0.00575 0.01775 0.00875 -0.006 0.01775 0.008 -0.00825 0.01775 
0.008 -0.008 0.01775 0.00775 -0.0085 0.01775 0.0075 -0.00925 0.01775 
0.0075 -0.009 0.01775 0.0075 -0.00875 0.01775 0.00725 -0.0095 0.01775 
0.00725 0.01125 0.01775 0.007 -0.01025 0.01775 0.007 -0.01 0.01775 
0.007 -0.00975 0.01775 0.00675 -0.0105 0.01775 0.0065 0.01175 0.01775 
0.00625 0.01175 0.01775 0.00525 -0.013 0.01775 0.00175 0.01525 0.01775 
0.0015 0.01525 0.01775 0.001 0.015 0.01775 -0.0015 0.016 0.01775 
-0.004 0.0165 0.01775 -0.0075 0.016 0.01775 -0.01325 0.00575 0.01775 
-0.0135 0.00375 0.01775 -0.0135 0.0055 0.01775 -0.01375 0.004 0.01775 
-0.01375 0.00525 0.01775 -0.014 0.00475 0.01775 -0.014 0.005 0.01775 
-0.01475 -0.00225 0.01775 0.01025 -0.0005 0.0175 0.01 -0.00075 0.0175 
0.00975 -0.0025 0.0175 0.0095 -0.00375 0.0175 0.0095 -0.00275 0.0175 
0.0085 -0.006 0.0175 0.007 0.011 0.0175 0.0065 -0.01125 0.0175 
0.0065 -0.011 0.0175 0.0065 -0.01075 0.0175 0.00625 -0.0115 0.0175 
0.00625 0.0115 0.0175 0.00525 -0.013 0.0175 0.00125 0.015 0.0175 
-0.00175 0.016 0.0175 -0.004 0.0165 0.0175 -0.00425 0.0165 0.0175 
-0.00725 0.016 0.0175 -0.0075 0.016 0.0175 -0.01325 0.006 0.0175 
-0.014 0.00425 0.0175 -0.014 0.0045 0.0175 -0.015 -0.00225 0.0175 
0.0105 -0.00025 0.01725 0.0105 0 0.01725 0.0105 0.00025 0.01725 
0.0105 0.0005 0.01725 0.01 -0.00225 0.01725 0.01 -0.002 0.01725 
0.01 -0.00175 0.01725 0.01 -0.0015 0.01725 0.01 -0.00125 0.01725 
0.01 -0.001 0.01725 0.0095 -0.00375 0.01725 0.0095 -0.0035 0.01725 
0.0095 -0.00325 0.01725 0.0095 -0.003 0.01725 0.009 -0.00575 0.01725 
0.00875 -0.006 0.01725 0.00675 0.011 0.01725 0.00625 0.0115 0.01725 
0.006 -0.01175 0.01725 0.00575 -0.01225 0.01725 0.00575 -0.012 0.01725 
0.0055 -0.01275 0.01725 0.0055 -0.0125 0.01725 0.005 -0.01325 0.01725 
0.0015 0.01425 0.01725 0.00125 0.015 0.01725 -0.00175 0.016 0.01725 
-0.0035 0.01575 0.01725 -0.00375 0.016 0.01725 -0.00375 0.01625 0.01725 
-0.0045 0.0165 0.01725 -0.0065 0.01575 0.01725 -0.00675 0.01575 0.01725 
-0.007 0.016 0.01725 -0.00775 0.01575 0.01725 -0.01325 0.00675 0.01725 
-0.01325 0.007 0.01725 -0.014 0.00325 0.01725 -0.014 0.00375 0.01725 
-0.014 0.004 0.01725 -0.01425 0.0035 0.01725 -0.015 -0.002 0.01725 
0.01075 0.0015 0.017 0.0105 0.00075 0.017 0.0105 0.00125 0.017 
0.0095 -0.004 0.017 0.00925 -0.0045 0.017 0.009 -0.0055 0.017 
0.009 -0.00475 0.017 0.00775 0.01 0.017 0.0075 0.01025 0.017 
0.00725 0.0105 0.017 0.007 0.01075 0.017 0.0065 0.01125 0.017 
0.00475 -0.0135 0.017 0.002 -0.01625 0.017 0.00175 -0.0165 0.017 
0.00125 0.0145 0.017 0.00125 0.01475 0.017 -0.00125 0.01575 0.017 
-0.0015 0.01575 0.017 -0.002 0.016 0.017 -0.00225 0.016 0.017 
-0.0025 0.016 0.017 -0.00475 0.0165 0.017 -0.00775 0.0155 0.017 
-0.013 0.008 0.017 -0.01325 0.00725 0.017 -0.01325 0.0075 0.017 
-0.01325 0.00775 0.017 -0.014 0.003 0.017 -0.01475 -0.001 0.017 
-0.015 -0.00175 0.017 0.011 0.00175 0.01675 0.011 0.00325 0.01675 
0.01075 0.00325 0.01675 0.0105 0.001 0.01675 0.0105 0.00325 0.01675 
0.0095 -0.00425 0.01675 0.009 -0.0055 0.01675 0.009 -0.00525 0.01675 
0.009 -0.005 0.01675 0.008 0.00975 0.01675 0.00625 0.0115 0.01675 
0.0045 -0.01375 0.01675 0.00425 -0.014 0.01675 0.004 -0.01425 0.01675 
0.003 -0.01575 0.01675 0.0025 -0.01575 0.01675 0.00225 -0.016 0.01675 
0.0015 -0.0165 0.01675 0.00125 -0.01675 0.01675 0.00125 0.01475 0.01675 
-0.00025 0.01575 0.01675 -0.0005 0.01575 0.01675 -0.001 0.0155 0.01675 
-0.00275 0.016 0.01675 -0.00475 0.01625 0.01675 -0.008 0.01525 0.01675 
-0.0085 0.015 0.01675 -0.01225 0.00875 0.01675 -0.0125 0.00875 0.01675 
-0.01275 0.009 0.01675 -0.013 0.00825 0.01675 -0.013 0.0085 0.01675 
-0.013 0.00875 0.01675 -0.01425 0.003 0.01675 -0.01475 -0.00075 0.01675 
-0.015 -0.0015 0.01675 -0.015 -0.00125 0.01675 0.011 0.002 0.0165 
[...]
CELL_DATA 3798
FIELD FieldData 1
TempoCell 1 3798 float
1 1 1 1 1 1 1 1 1 
1 1 1 1 1 1 1 1 1 
1 1 1 1 1 1 1 1 1 
1 1 1 1 1 1 1 1 1 
1 1 1 1 1 1 1 1 1 
1 1 1 1 1 1 1 1 1 
1 1 1 1 1 1 1 1 1 
1 1 1 1 1 1 1 1 1 
1 1 1 1 1 1 1 1 1 
1 1 1 1 1 1 1 1 1 
1 1 1 1 1 1 1 1 1 
1 1 1 1 1 1 1 1 1 
1 1 1 1 1 1 1 1 1 
1 1 1 1 1 1 1 1 1 
1 1 1 1 1 1 1 1 1 
1 1 1 1 1 1 1 1 1 
1 1 1 1 1 1 1 1 1 
1 1 1 1 1 1 1 1 1 
1 1 1 1 1 1 1 1 1 
1 1 1 1 1 1 1 1 1 
1 1 1 1 1 1 1 1 1 
1 1 1 1 1 1 1 1 1 
1 1 1 1 1 1 1 1 1 
1 1 1 1 1 1 1 1 1 
1 1 1 1 1 1 1 1 1 
1 1 1 1 1 1 1 1 1 
1 1 1 1 1 1 1 1 1 
1 1 1 1 1 1 1 1 1 
1 1 1 1 1 1 1 1 1 
1 1 1 1 1 1 1 1 1 
1 1 1 1 1 1 1 1 1 
1 1 1 1 1 1 1 1 1 
1 1 1 1 1 1 1 1 1 
1 1 1 1 1 1 1 1 1 
1 1 1 1 1 1 1 1 1 
1 1 1 1 1 1 1 1 1 
1 1 1 1 1 1 1 1 1 
1 1 1 1 1 1 1 1 1 
1 1 1 1 1 1 1 1 1 
1 1 1 1 1 1 1 1 1 
1 1 1 1 1 1 1 1 1 
1 1 1 1 1 1 1 1 1 
1 1 1 1 1 1 1 1 1 
1 1 1 1 1 1 1 1 1 
1 1 1 1 1 1 1 1 1 
1 1 1 1 1 1 1 1 1 
1 1 1 1 1 1 1 1 1 
1 1 1 1 1 1 1 1 1 
1 1 1 1 1 1 1 1 1 
1 1 1 1 1 1 1 1 1 
1 1 1 1 1 1 1 1 1 
1 1 1 1 1 1 1 1 1 
1 1 1 1 1 1 1 1 1 
1 1 1 1 1 1 1 1 1 
1 1 1 1 1 1 1 1 1 
1 1 1 1 1 1 1 1 1 
1 1 1 1 1 1 1 1 1 
1 1 1 1 1 1 1 1 1 
1 1 1 1 1 1 1 1 1 
1 1 1 1 1 1 1 1 1 
1 1 1 1 1 1 1 1 1 
1 1 1 1 1 1 1 1 1 
1 1 1 1 1 1 1 1 1 
1 1 1 1 1 1 1 1 1 
1 1 1 1 1 1 1 1 1 
1 1 1 1 1 1 1 1 1 
1 1 1 1 1 1 1 1 1 
1 1 1 1 1 1 1 1 1 
1 1 1 1 1 1 1 1 1 
1 1 1 1 1 1 1 1 1 
1 1 1 1 1 1 1 1 1 
1 1 1 1 1 1 1 1 1 
1 1 1 1 1 1 1 1 1 
1 1 1 1 1 1 1 1 1 
1 1 1 1 1 1 1 1 1 
1 1 1 1 1 1 1 1 1 
1 1 1 1 1 1 1 1 1 
1 1 1 1 1 1 1 1 1 
1 1 1 1 1 1 1 1 1 
1 1 1 1 1 1 1 1 1 
1 1 1 1 1 1 1 1 1 
1 1 1 1 1 1 1 1 1 
1 1 1 1 1 1 1 1 1 
1 1 1 1 1 1 1 1 1 
1 1 1 1 1 1 1 1 1 
1 1 1 1 1 1 1 1 1 
1 1 1 1 1 1 1 1 1 
1 1 1 1 1 1 1 1 1 
1 1 1 1 1 1 1 1 1 
1 1 1 1 1 1 1 1 1 
1 1 1 1 1 1 1 1 1 
1 1 1 1 1 1 1 1 1 
1 1 1 1 1 1 1 1 1 
1 1 1 1 1 1 1 1 1 
1 1 1 1 1 1 1 1 1 
1 1 1 1 1 1 1 1 1 
1 1 1 1 1 1 1 1 1 
1 1 1 1 1 1 1 1 1 
1 1 1 1 1 1 1 1 1 
1 1 1 1 1 1 1 1 1 
1 1 1 1 1 1 1 1 1 
1 1 1 1 1 1 1 1 1 
1 1 1 1 1 1 1 1 1 
1 1 1 1 1 1 1 1 1 
1 1 1 1 1 1 1 1 1 
1 1 1 1 1 1 1 1 1 
1 1 1 1 1 1 1 1 1 
1 1 1 1 1 1 1 1 1 
1 1 1 1 1 1 1 1 1 
1 1 1 1 1 1 1 1 1 
1 1 1 1 1 1 1 1 1 
1 1 1 1 1 1 1 1 1 
1 1 1 1 1 1 1 1 1 
1 1 1 1 1 1 1 1 1 
1 1 1 1 1 1 1 1 1 
1 1 1 1 1 1 1 1 1 
1 1 1 1 1 1 1 1 1 
1 1 1 1 1 1 1 1 1 
1 1 1 1 1 1 1 1 1 
1 1 1 1 1 1 1 1 1 
1 1 1 1 1 1 1 1 1 
1 1 1 1 1 1 1 1 1 
1 1 1 1 1 1 1 1 1 
1 1 1 1 1 1 1 1 1 
1 1 1 1 1 1 1 1 1 
1 1 1 1 1 1 1 1 1 
1 1 1 1 1 1 1 1 1 
1 1 1 1 1 1 1 1 1 
1 1 1 1 1 1 1 1 1 
1 1 1 1 1 1 1 1 1 
1 1 1 1 1 1 1 1 1 
1 1 1 1 1 1 1 1 1 
1 1 1 1 1 1 1 1 1 
1 1 1 1 1 1 1 1 1 
1 1 1 1 1 1 1 1 1 
1 1 1 1 1 1 1 1 1 
1 1 1 1 1 1 1 1 1 
1 1 1 1 1 1 1 1 1 
1 1 1 1 1 1 1 1 1 
1 1 1 1 1 1 1 1 1 
1 1 1 1 1 1 1 1 1 
1 1 1 1 1 1 1 1 1 
1 1 1 1 1 1 1 1 1 
1 1 1 1 1 1 1 1 1 
1 1 1 1 1 1 1 1 1 
1 1 1 1 1 1 1 1 1 
1 1 1 1 1 1 1 1 1 
1 1 1 1 1 1 1 1 1 
1 1 1 1 1 1 1 1 1 
1 1 1 1 1 1 1 1 1 
1 1 1 1 1 1 1 1 1 
1 1 1 1 1 1 1 1 1 
1 1 1 1 1 1 1 1 1 
1 1 1 1 1 1 1 1 1 
1 1 1 1 1 1 1 1 1 
1 1 1 1 1 1 1 1 1 
1 1 1 1 1 1 1 1 1 
1 1 1 1 1 1 1 1 1 
1 1 1 1 1 1 1 1 1 
1 1 1 1 1 1 1 1 1 
1 1 1 1 1 1 1 1 1 
1 1 1 1 1 1 1 1 1 
1 1 1 1 1 1 1 1 1 
1 1 1 1 1 1 1 1 1 
1 1 1 1 1 1 1 1 1 
1 1 1 1 1 1 1 1 1 
1 1 1 1 1 1 1 1 1 
1 1 1 1 1 1 1 1 1 
1 1 1 1 1 1 1 1 1 
1 1 1 1 1 1 1 1 1 
1 1 1 1 1 1 1 1 1 
1 1 1 1 1 1 1 1 1 
1 1 1 1 1 1 1 1 1 
1 1 1 1 1 1 1 1 1 
1 1 1 1 1 1 1 1 1 
1 1 1 1 1 1 1 1 1 
1 1 1 1 1 1 1 1 1 
1 1 1 1 1 1 1 1 1 
1 1 1 1 1 1 1 1 1 
1 1 1 1 1 1 1 1 1 
1 1 1 1 1 1 1 1 1 
1 1 1 1 1 1 1 1 1 
1 1 1 1 1 1 1 1 1 
1 1 1 1 1 1 1 1 1 
1 1 1 1 1 1 1 1 1 
1 1 1 1 1 1 1 1 1 
1 1 1 1 1 1 1 1 1 
1 1 1 1 1 1 1 1 1 
1 1 1 1 1 1 1 1 1 
1 1 1 1 1 1 1 1 1 
1 1 1 1 1 1 1 1 1 
1 1 1 1 1 1 1 1 1 
1 1 1 1 1 1 1 1 1 
1 1 1 1 1 1 1 1 1 
1 1 1 1 1 1 1 1 1 
1 1 1 1 1 1 1 1 1 
1 1 1 1 1 1 1 1 1 
1 1 1 1 1 1 1 1 1 
1 1 1 1 1 1 1 1 1 
1 1 1 1 1 1 1 1 1 
1 1 1 1 1 1 1 1 1 
1 1 1 1 1 1 1 1 1 
1 1 1 1 1 1 1 1 1 
1 1 1 1 1 1 1 1 1 
1 1 1 1 1 1 1 1 1 
1 1 1 1 1 1 1 1 1 
1 1 1 1 1 1 1 1 1 
1 1 1 1 1 1 1 1 1 
1 1 1 1 1 1 1 1 1 
1 1 1 1 1 1 1 1 1 
1 1 1 1 1 1 1 1 1 
1 1 1 1 1 1 1 1 1 
1 1 1 1 1 1 1 1 1 
1 1 1 1 1 1 1 1 1 
1 1 1 1 1 1 1 1 1 
1 1 1 1 1 1 1 1 1 
1 1 1 1 1 1 1 1 1 
1 1 1 1 1 1 1 1 1 
1 1 1 1 1 1 1 1 1 
1 1 1 1 1 1 1 1 1 
1 1 1 1 1 1 1 1 1 
1 1 1 1 1 1 1 1 1 
1 1 1 1 1 1 1 1 1 
1 1 1 1 1 1 1 1 1 
1 1 1 1 1 1 1 1 1 
1 1 1 1 1 1 1 1 1 
1 1 1 1 1 1 1 1 1 
1 1 1 1 1 1 1 1 1 
1 1 1 1 1 1 1 1 1 
1 1 1 1 1 1 1 1 1 
1 1 1 1 1 1 1 1 1 
1 1 1 1 1 1 1 1 1 
1 1 1 1 1 1 1 1 1 
1 1 1 1 1 1 1 1 1 
1 1 1 1 1 1 1 1 1 
1 1 1 1 1 1 1 1 1 
1 1 1 1 1 1 1 1 1 
1 1 1 1 1 1 1 1 1 
1 1 1 1 1 1 1 1 1 
1 1 1 1 1 1 1 1 1 
1 1 1 1 1 1 1 1 1 
1 1 1 1 1 1 1 1 1 
1 1 1 1 1 1 1 1 1 
1 1 1 1 1 1 1 1 1 
1 1 1 1 1 1 1 1 1 
1 1 1 1 1 1 1 1 1 
1 1 1 1 1 1 1 1 1 
1 1 1 1 1 1 1 1 1 
1 1 1 1 1 1 1 1 1 
1 1 1 1 1 1 1 1 1 
1 1 1 1 1 1 1 1 1 
1 1 1 1 1 1 1 1 1 
1 1 1 1 1 1 1 1 1 
1 1 1 1 1 1 1 1 1 
1 1 1 1 1 1 1 1 1 
1 1 1 1 1 1 1 1 1 
1 1 1 1 1 1 1 1 1 
1 1 1 1 1 1 1 1 1 
1 1 1 1 1 1 1 1 1 
1 1 1 1 1 1 1 1 1 
1 1 1 1 1 1 1 1 1 
1 1 1 1 1 1 1 1 1 
1 1 1 1 1 1 1 1 1 
1 1 1 1 1 1 1 1 1 
1 1 1 1 1 1 1 1 1 
1 1 1 1 1 1 1 1 1 
1 1 1 1 1 1 1 1 1 
1 1 1 1 1 1 1 1 1 
1 1 1 1 1 1 1 1 1 
1 1 1 1 1 1 1 1 1 
1 1 1 1 1 1 1 1 1 
1 1 1 1 1 1 1 1 1 
1 1 1 1 1 1 1 1 1 
1 1 1 1 1 1 1 1 1 
1 1 1 1 1 1 1 1 1 
1 1 1 1 1 1 1 1 1 
1 1 1 1 1 1 1 1 1 
1 1 1 1 1 1 1 1 1 
1 1 1 1 1 1 1 1 1 
1 1 1 1 1 1 1 1 1 
1 1 1 1 1 1 1 1 1 
1 1 1 1 1 1 1 1 1 
1 1 1 1 1 1 1 1 1 
1 1 1 1 1 1 1 1 1 
1 1 1 1 1 1 1 1 1 
1 1 1 1 1 1 1 1 1 
1 1 1 1 1 1 1 1 1 
1 1 1 1 1 1 1 1 1 
1 1 1 1 1 1 1 1 1 
1 1 1 1 1 1 1 1 1 
1 1 1 1 1 1 1 1 1 
1 1 1 1 1 1 1 1 1 
1 1 1 1 1 1 1 1 1 
1 1 1 1 1 1 1 1 1 
1 1 1 1 1 1 1 1 1 
1 1 1 1 1 1 1 1 1 
1 1 1 1 1 1 1 1 1 
1 1 1 1 1 1 1 1 1 
1 1 1 1 1 1 1 1 1 
1 1 1 1 1 1 1 1 1 
1 1 1 1 1 1 1 1 1 
1 1 1 1 1 1 1 1 1 
1 1 1 1 1 1 1 1 1 
1 1 1 1 1 1 1 1 1 
1 1 1 1 1 1 1 1 1 
1 1 1 1 1 1 1 1 1 
1 1 1 1 1 1 1 1 1 
1 1 1 1 1 1 1 1 1 
1 1 1 1 1 1 1 1 1 
1 1 1 1 1 1 1 1 1 
1 1 1 1 1 1 1 1 1 
1 1 1 1 1 1 1 1 1 
1 1 1 1 1 1 1 1 1 
1 1 1 1 1 1 1 1 1 
1 1 1 1 1 1 1 1 1 
1 1 1 1 1 1 1 1 1 
1 1 1 1 1 1 1 1 1 
1 1 1 1 1 1 1 1 1 
1 1 1 1 1 1 1 1 1 
1 1 1 1 1 1 1 1 1 
1 1 1 1 1 1 1 1 1 
1 1 1 1 1 1 1 1 1 
1 1 1 1 1 1 1 1 1 
1 1 1 1 1 1 1 1 1 
1 1 1 1 1 1 1 1 1 
1 1 1 1 1 1 1 1 1 
1 1 1 1 1 1 1 1 1 
1 1 1 1 1 1 1 1 1 
1 1 1 1 1 1 1 1 1 
1 1 1 1 1 1 1 1 1 
1 1 1 1 1 1 1 1 1 
1 1 1 1 1 1 1 1 1 
1 1 1 1 1 1 1 1 1 
1 1 1 1 1 1 1 1 1 
1 1 1 1 1 1 1 1 1 
1 1 1 1 1 1 1 1 1 
1 1 1 1 1 1 1 1 1 
1 1 1 1 1 1 1 1 1 
1 1 1 1 1 1 1 1 1 
1 1 1 1 1 1 1 1 1 
1 1 1 1 1 1 1 1 1 
1 1 1 1 1 1 1 1 1 
1 1 1 1 1 1 1 1 1 
1 1 1 1 1 1 1 1 1 
1 1 1 1 1 1 1 1 1 
1 1 1 1 1 1 1 1 1 
1 1 1 1 1 1 1 1 1 
1 1 1 1 1 1 1 1 1 
1 1 1 1 1 1 1 1 1 
1 1 1 1 1 1 1 1 1 
1 1 1 1 1 1 1 1 1 
1 1 1 1 1 1 1 1 1 
1 1 1 1 1 1 1 1 1 
1 1 1 1 1 1 1 1 1 
1 1 1 1 1 1 1 1 1 
1 1 1 1 1 1 1 1 1 
1 1 1 1 1 1 1 1 1 
1 1 1 1 1 1 1 1 1 
1 1 1 1 1 1 1 1 1 
1 1 1 1 1 1 1 1 1 
1 1 1 1 1 1 1 1 1 
1 1 1 1 1 1 1 1 1 
1 1 1 1 1 1 1 1 1 
1 1 1 1 1 1 1 1 1 
1 1 1 1 1 1 1 1 1 
1 1 1 1 1 1 1 1 1 
1 1 1 1 1 1 1 1 1 
1 1 1 1 1 1 1 1 1 
1 1 1 1 1 1 1 1 1 
1 1 1 1 1 1 1 1 1 
1 1 1 1 1 1 1 1 1 
1 1 1 1 1 1 1 1 1 
1 1 1 1 1 1 1 1 1 
1 1 1 1 1 1 1 1 1 
1 1 1 1 1 1 1 1 1 
1 1 1 1 1 1 1 1 1 
1 1 1 1 1 1 1 1 1 
1 1 1 1 1 1 1 1 1 
1 1 1 1 1 1 1 1 1 
1 1 1 1 1 1 1 1 1 
1 1 1 1 1 1 1 1 1 
1 1 1 1 1 1 1 1 1 
1 1 1 1 1 1 1 1 1 
1 1 1 1 1 1 1 1 1 
1 1 1 1 1 1 1 1 1 
1 1 1 1 1 1 1 1 1 
1 1 1 1 1 1 1 1 1 
1 1 1 1 1 1 1 1 1 
1 1 1 1 1 1 1 1 1 
1 1 1 1 1 1 1 1 1 
1 1 1 1 1 1 1 1 1 
1 1 1 1 1 1 1 1 1 
1 1 1 1 1 1 1 1 1 
1 1 1 1 1 1 1 1 1 
1 1 1 1 1 1 1 1 1 
1 1 1 1 1 1 1 1 1 
1 1 1 1 1 1 1 1 1 
1 1 1 1 1 1 1 1 1 
1 1 1 1 1 1 1 1 1 
1 1 1 1 1 1 1 1 1 
1 1 1 1 1 1 1 1 1 
1 1 1 1 1 1 1 1 1 
1 1 1 1 1 1 1 1 1 
1 1 1 1 1 1 1 1 1 
1 1 1 1 1 1 1 1 1 
1 1 1 1 1 1 1 1 1 
1 1 1 1 1 1 1 1 1 
1 1 1 1 1 1 1 1 1 
1 1 1 1 1 1 1 1 1 
1 1 1 1 1 1 1 1 1 
1 1 1 1 1 1 1 1 1 
1 1 1 1 1 1 1 1 1 
1 1 1 1 1 1 1 1 1 
1 1 1 1 1 1 1 1 1 
1 1 1 1 1 1 1 1 1 
1 1 1 1 1 1 1 1 1 
1 1 1 1 1 1 1 1 1 
1 1 1 1 1 1 1 1 1 
1 1 1 1 1 1 1 1 1 
1 1 1 1 1 1 1 1 1 
1 1 1 1 1 1 1 1 1 
1 1 1 1 1 1 1 1 1 

METADATA
INFORMATION 0

POINT_DATA 3799
FIELD FieldData 1
TempoDijkstra 1 3799 float
0 0.103986 0.385488 0.281502 0.207973 0.335329 0.590043 0.663572 0.737101 
1.63202 0.462686 1.50466 1.40067 0.918285 0.663572 0.590043 1.27332 0.790929 
1.14596 1.04197 0.968444 0.894915 1.57819 1.50466 1.27332 1.02227 1.7557 
1.68218 1.3773 1.14963 1.82923 1.25362 1.90276 1.32714 2.25071 2.17718 
2.10365 2.03012 1.40067 2.32424 1.4742 1.50466 2.4516 1.57819 1.60865 
13.2927 2.52512 1.68218 1.71263 13.2192 2.62911 1.78616 1.81662 12.9508 
13.0243 13.1152 2.70264 1.85969 1.89015 12.8468 2.95369 2.88016 2.80663 
1.98705 1.96368 12.7194 3.08104 2.09103 2.03721 12.6154 3.41637 3.2084 
2.19502 2.11074 12.4881 3.31239 2.32238 2.21472 12.4145 3.43974 2.35944 
2.28825 9.69267 9.61914 12.341 13.7855 13.8088 13.8824 13.9559 4.21992 
4.14639 3.64063 3.5671 2.43297 2.39224 9.49178 12.2675 13.9647 13.5775 
13.6815 4.01903 3.74461 3.90903 2.56032 2.46577 9.41825 12.1401 13.8374 
13.8912 13.9647 13.4501 13.4735 3.9455 3.87197 2.73784 2.66431 2.59738 
2.57235 9.31427 9.24074 9.16721 12.1832 12.1097 12.0361 13.7639 13.3461 
4.6629 4.07286 3.97596 4.04949 2.96918 2.8652 2.70137 2.7749 2.64588 
9.06063 8.9871 11.9322 13.5128 13.5863 13.6599 13.4088 13.2422 13.1686 
4.53554 4.20021 3.11883 3.04531 2.93932 2.83533 2.7618 2.87889 2.73676 
8.92287 8.84934 11.8282 13.165 13.2385 13.312 13.0646 16.8867 16.9602 
4.43156 4.32757 3.14929 2.95241 2.84075 3.15271 8.72199 11.7242 12.9139 
12.9874 13.061 12.9373 16.7593 16.6553 4.50509 3.54999 3.40293 3.3294 
3.25328 3.0564 2.94474 3.04872 8.618 11.6202 12.8099 12.8099 16.5514 
5.55781 4.63244 3.90268 3.7301 3.50692 3.35726 3.12993 3.07209 8.66816 
8.49064 11.5162 12.7059 16.4474 16.3434 16.2394 5.43046 4.73643 3.79869 
3.63427 3.46125 3.23392 3.17608 8.56417 8.49064 8.41711 11.4122 12.6324 
5.76579 16.1354 5.3031 4.84042 3.92605 3.56524 3.30745 3.30344 3.30344 
8.31313 11.3387 12.5284 13.5567 5.6618 16.0314 5.43046 5.17574 5.07176 
4.96777 4.0534 3.63877 3.38098 3.68893 3.6154 3.51141 3.40742 3.40742 
3.48095 8.20914 11.2347 12.4244 13.4293 13.3558 13.2823 13.8311 13.7576 
13.6841 6.15446 5.82622 5.72223 15.9579 5.55781 4.18076 3.69377 3.48496 
3.58753 8.22483 11.1307 11.0902 12.2971 13.3324 13.2589 13.1549 14.0086 
13.9351 14.1126 14.3637 14.2901 14.2166 14.4677 6.7642 14.7187 14.6452 
14.5716 14.8227 6.0271 5.95357 15.8844 4.41871 4.34518 4.28475 3.79776 
3.61232 3.69152 8.04472 8.79811 8.12085 8.69412 8.22483 8.40235 8.32882 
10.9863 11.0185 11.1225 11.7215 12.2235 11.8254 13.1828 6.63685 15.0971 
15.0236 14.95 15.2011 6.05756 15.8108 4.38873 3.90174 3.68585 3.71631 
3.79551 3.76505 7.94074 8.56677 8.49324 10.9101 10.8911 10.8176 10.7441 
10.6705 11.5941 11.5206 11.447 11.3735 11.3 11.2265 12.15 12.0765 
12.003 11.9294 12.9748 13.0788 6.53286 6.13109 15.3284 15.506 15.4324 
15.6835 15.6099 15.9382 4.76713 4.46226 3.97527 3.99072 3.88673 3.81321 
3.82029 4.07701 4.00348 3.89949 3.89241 7.70822 7.63469 8.87824 8.73118 
8.65765 8.98223 10.8061 10.2825 10.5665 10.3864 12.254 12.4853 12.8708 
12.5893 6.97218 6.86819 6.7642 6.66022 6.4055 16.0655 17.3029 17.4069 
4.63978 4.56625 4.17616 4.10263 4.07926 4.15279 4.22632 3.92428 3.99639 
7.29818 7.54922 7.4757 7.40217 8.98223 10.4642 10.7022 10.1551 9.75699 
9.83052 10.4626 9.90405 12.358 12.8404 12.7669 12.6933 7.09953 6.27815 
16.1929 16.2969 16.4009 17.0715 17.0715 17.1755 17.5109 17.6148 4.63978 
4.54146 4.46793 4.30351 4.3303 4.02826 4.12375 4.28817 7.23775 7.16422 
7.06024 7.20729 7.13376 7.07333 9.08621 10.3602 10.5982 10.5246 10.0511 
9.68346 8.04461 12.9444 7.22689 6.35168 16.5282 16.6322 16.7362 16.8402 
16.9442 17.7188 4.76713 17.8228 4.4075 4.3329 4.13225 4.2511 6.96935 
9.25063 9.1902 10.2693 10.1958 10.1223 9.94712 9.87359 9.80006 9.72653 
9.57948 9.50595 9.43242 9.35889 7.91725 13.0484 7.63575 7.56222 7.45823 
7.35425 6.42521 6.08612 4.84066 17.9268 4.51149 4.43688 4.25961 4.74566 
4.71012 4.60613 4.32463 4.37846 4.6098 4.68333 4.78732 6.89582 9.37799 
10.0314 9.95786 9.89744 10.0511 9.2549 9.18137 7.84372 13.1523 7.73973 
6.49873 5.95876 4.91419 4.61547 4.54087 4.36359 4.61831 4.50215 4.42862 
4.50582 4.91468 5.01866 5.12265 6.38947 6.62742 6.79183 9.48197 9.79345 
9.71992 9.64639 10.1246 9.07738 8.17905 8.07506 7.97108 13.2797 13.4572 
13.3837 13.7621 7.63761 6.62609 5.8314 5.21906 5.14553 5.04155 5.01818 
5.09171 4.74283 4.6144 4.88671 4.78272 4.49095 4.52552 5.25 5.34324 
6.28548 6.50006 7.04288 6.89582 8.24159 7.14686 8.1376 8.03362 9.60933 
10.1982 8.95003 8.28304 13.6347 13.5612 13.8661 7.77205 7.66807 7.51025 
6.75345 5.72742 5.32564 5.19569 4.87019 4.6694 4.61831 4.62951 5.47059 
6.15813 6.40917 6.33564 6.26211 7.42128 7.34775 7.27422 7.65262 7.94439 
9.73669 10.3022 9.05402 8.84604 8.74205 8.66853 8.595 8.49101 8.38702 
13.9934 7.54071 7.43672 6.82698 5.60006 5.453 5.29968 4.77339 4.95364 
4.84965 4.74566 5.59795 5.76237 5.70194 5.92678 6.03077 6.4827 7.54864 
8.19544 8.12191 8.04838 7.85351 7.77998 8.29943 8.91812 8.84459 8.77106 
8.69753 8.624 8.55047 8.40341 9.81022 10.4061 9.158 14.0974 7.30936 
6.93096 5.55699 5.40367 4.87738 4.84965 6.58669 8.5074 9.04547 9.9142 
10.0182 10.5101 11.1612 11.2652 11.3387 11.4122 11.4858 9.26199 14.2014 
14.4524 14.3789 14.3054 14.5564 7.23584 7.00449 5.84876 5.68434 5.50765 
4.95091 4.97701 5.08135 4.97736 4.87337 6.64712 8.58093 9.119 10.1222 
10.2262 10.6141 11.0338 9.33552 14.7339 14.6604 7.13185 5.8117 5.61164 
5.02444 5.05053 5.00073 19.7949 19.8989 19.9724 6.72065 9.19253 8.70829 
10.4037 10.3301 10.6876 10.8563 10.9298 9.4395 7.42362 7.25921 6.48896 
5.68517 5.12842 5.15452 5.15452 5.12809 19.6909 6.81153 9.1673 9.06332 
9.29652 8.95933 8.8858 8.81227 10.5812 10.5077 10.9793 10.9058 10.8322 
10.7587 10.6852 11.5118 11.3039 11.2303 11.1568 11.0833 11.4079 10.7916 
10.7523 9.48258 7.38656 7.07534 6.38497 6.28099 5.97612 5.7587 5.23241 
5.69968 5.62615 5.55262 5.47909 5.40556 5.33204 5.25851 5.28188 5.23208 
19.5636 6.88506 9.06332 11.692 10.8956 10.7093 9.55611 7.51392 6.97135 
6.86736 6.76338 6.65939 6.58586 6.51233 6.177 6.10347 5.86268 5.30594 
5.87979 5.80626 5.38586 5.3056 19.4596 6.95859 9.13685 11.0731 10.9996 
10.6053 9.62963 7.64128 6.86736 6.20746 5.90576 5.37947 6.05731 5.98378 
5.45939 5.86825 5.94178 5.37913 19.353 18.864 9.21038 10.3369 11.1771 
10.5013 10.0451 9.97157 11.7635 9.80715 9.70316 7.74526 6.94089 17.3585 
6.31145 6.03311 5.453 6.11114 5.62381 5.7278 5.58675 5.69073 5.76427 
6.06914 6.17312 5.50649 19.2795 7.10565 18.7367 9.31436 11.6361 11.5626 
11.2811 10.3566 10.2095 10.1491 9.93451 11.9279 11.8909 8.18458 8.08059 
7.87262 7.04488 17.2311 6.38497 7.75186 6.16047 5.52653 5.7278 5.63385 
19.1755 7.23301 18.6631 9.55823 11.4586 11.3851 10.4301 12.1054 12.0319 
9.14569 9.07216 8.96817 8.86419 8.7602 8.65621 8.58268 8.50915 8.40517 
8.31193 7.99998 7.89232 7.11841 17.1576 6.51233 7.58745 7.66098 6.19753 
5.63051 6.05237 5.97884 5.90531 5.83178 5.73783 19.0994 18.8945 18.8209 
18.5896 7.36036 9.73834 10.5367 12.3591 7.96585 7.19194 17.0841 6.58586 
7.46009 6.27106 5.8314 5.75787 6.06973 5.86519 18.9954 18.6936 7.46435 
8.31512 9.54688 9.84233 10.664 12.3591 12.2855 8.03938 8.14337 8.24735 
8.32088 8.39441 7.31929 16.9567 6.65939 7.38656 6.37504 6.1129 6.00891 
5.93538 6.24984 6.19708 5.99255 6.06607 18.8914 18.4175 7.59171 7.89917 
8.22375 8.15022 8.07669 8.00316 8.516 8.44248 9.62041 10.1538 10.0067 
10.7376 12.5366 12.4631 8.16674 8.4984 16.8294 7.44665 7.75152 6.76338 
7.2592 6.93096 6.5024 6.03937 6.35382 10.7517 6.19343 6.29742 18.7874 
18.3571 7.79259 7.71906 8.61999 9.69394 10.2578 10.2812 10.8416 12.6639 
8.24027 8.54147 16.702 7.55064 7.62417 6.86736 6.97135 7.36319 7.15522 
7.08169 6.82698 6.67992 6.60639 6.14336 10.6243 6.42477 18.6808 18.2531 
9.79793 10.4587 10.3851 10.6362 10.5627 10.7402 10.9455 11.3032 12.8953 
12.7913 8.34425 8.615 16.6285 7.62417 7.04747 7.46718 6.95433 6.7708 
6.24734 10.5716 6.44814 18.6073 18.1491 9.87146 11.1231 11.0495 13.0962 
13.0226 8.96109 8.88756 8.44824 8.74236 16.5549 7.69769 8.20487 6.84433 
6.35133 10.374 10.478 10.4442 18.7885 18.6845 18.6073 18.5033 6.5755 
6.67949 18.0217 17.9482 11.2461 11.1726 10.8819 11.0991 10.7779 9.94499 
11.3006 11.227 13.2002 8.78357 8.5756 8.81589 16.4276 7.77122 8.13134 
6.93522 7.00875 6.45532 10.3402 18.5571 18.7347 18.3993 6.80684 17.8442 
10.9951 10.6506 10.049 10.1225 10.196 11.4279 13.3275 13.4315 8.67958 
8.88942 15.9649 15.8609 16.3002 7.84475 8.05781 7.06258 6.5593 6.63283 
10.2363 18.4531 18.3258 6.91083 17.7707 11.337 11.2635 11.2792 11.0991 
11.1726 10.815 10.3026 10.3761 10.4497 10.5232 10.3 10.2265 10.153 
11.5015 9.29642 13.5355 8.8571 8.75311 14.3153 14.2418 14.189 14.4193 
14.5233 14.6273 15.445 8.9934 15.7569 15.8609 15.9649 16.0689 16.1729 
7.91828 7.95382 7.84984 7.18994 6.70636 10.1089 18.3796 18.2523 7.03819 
17.6667 11.441 10.2265 10.4274 11.6288 9.16906 13.6395 9.06507 8.96109 
13.9577 13.8841 13.8106 14.0617 8.88047 14.9017 14.8281 14.7546 15.0057 
15.1096 15.2136 15.3176 9.05383 15.5256 9.12076 15.6296 7.99181 8.18517 
8.08118 7.72248 7.36745 7.29392 6.77989 18.2756 18.1787 7.16554 17.5932 
11.4715 10.3 10.5314 11.4384 11.3649 11.2913 11.2178 11.1443 10.6353 
11.7023 9.93662 9.4004 9.29642 13.7668 8.98446 9.15782 9.24812 8.09839 
8.45958 8.31252 7.61849 7.54497 7.47144 6.85342 9.96184 18.1483 18.0747 
7.2929 17.5404 11.5754 10.3735 11.6895 11.6159 11.5424 11.0403 10.9799 
10.7115 11.8297 9.80926 9.52776 13.7865 13.8942 9.08844 9.26181 9.37547 
8.41651 7.47403 6.92695 9.51934 9.45842 9.85785 17.9708 17.8668 7.42026 
17.4131 11.649 10.4775 12.0445 11.9405 11.867 11.7934 10.8759 10.8155 
11.9571 9.73573 9.63175 13.8905 13.9982 9.16197 9.33533 9.449 7.54756 
7.00048 9.41535 9.75387 17.7394 17.3091 7.54761 10.5815 10.0406 12.0306 
9.93662 9.86309 13.9945 9.28933 14.1022 14.2061 9.60975 9.46269 9.52253 
8.58093 7.62109 22.7845 7.09136 9.31137 9.68034 17.6659 17.2356 7.7485 
7.67497 10.7089 10.1446 12.1346 14.0376 9.36286 14.2823 9.59005 9.59606 
8.68491 7.69462 22.6572 7.19535 9.20738 9.55298 17.5924 17.162 7.87585 
10.8362 10.3455 10.2719 12.2386 9.49021 14.1649 14.3863 9.76756 9.69403 
9.70005 8.81227 8.84933 7.76815 22.5837 7.23842 9.13385 18.0703 9.44899 
17.4884 17.4148 17.3387 17.058 7.94939 10.889 10.5535 10.4495 12.2816 
9.52727 14.2923 14.5136 9.76756 15.8299 9.77358 8.8858 8.95332 9.02685 
9.13083 7.8955 22.5101 7.31195 9.06032 9.37546 17.9663 17.8623 17.2347 
16.9307 8.02291 10.9625 10.7179 10.6808 12.3856 9.75862 9.65463 14.3658 
14.641 9.87155 15.7259 9.87756 8.95933 9.23482 9.33881 7.94826 7.96903 
22.4366 7.41594 7.48947 8.98679 9.30193 17.735 17.6614 17.1743 16.8572 
8.29733 8.2238 8.15027 11.036 10.8954 10.8219 12.4591 9.88597 14.4567 
10.7954 14.745 9.94508 14.8848 15.2435 15.3475 15.5986 15.525 15.4515 
9.98155 9.06332 9.46616 8.29019 8.04256 22.3631 7.45901 7.59345 7.66698 
8.91326 17.5574 17.0703 16.9942 16.7836 8.42468 11.1096 11.002 12.5631 
10.1604 10.0869 10.0133 10.7583 14.5302 10.0186 14.8723 15.0122 15.1162 
10.0855 10.1591 10.2631 10.3366 9.13944 8.11267 8.1862 8.14655 22.2591 
7.53254 7.77097 7.8445 8.80928 9.13752 9.21105 9.28458 17.4301 16.8902 
16.8141 16.6796 8.49821 11.1831 11.106 10.4653 10.3917 12.6905 10.2877 
14.6038 10.6309 10.0921 15.0857 10.1895 10.4639 9.21297 8.1862 8.27391 
22.1856 7.60607 7.97186 8.04538 8.78957 8.8631 8.93663 9.01016 9.41193 
17.3261 16.7101 16.6061 8.57174 11.2861 11.2333 10.6454 10.5692 12.8178 
14.7311 10.5036 10.2195 15.1897 10.5913 9.48137 9.31695 8.25973 8.37789 
22.112 7.6796 8.14937 8.66222 9.53929 17.2221 17.1181 16.5021 8.8863 
8.67832 8.99028 9.62233 9.1678 9.09427 11.4134 10.7727 12.8914 10.6309 
14.8046 10.3235 15.3171 10.644 9.42094 8.36372 8.48188 22.0385 7.75313 
8.27673 8.55823 17.7547 17.6507 9.64328 17.5467 17.4732 16.9908 16.8868 
16.3981 8.78231 9.27179 9.49497 9.42144 9.34791 11.9586 11.885 11.738 
11.6645 11.5909 11.5174 10.8463 12.9954 12.0626 10.7045 14.9086 10.4041 