# vtk DataFile Version 3.0
Tree
ASCII
DATASET POLYDATA
POINTS 260 float
0 0 0.0287941
-0.00108484 0.0168428 -0.0217501
-0.00524832 -0.000966276 0.0044608
-0.0175042 -0.0226999 -0.000345742
-0.000334604 -1.43024e-05 -0.0105597
0.00754241 -0.0179196 -0.0192285
0.00302398 -0.00497292 0.0152677
0.016798 -0.0166561 0.00829498
0.000812193 0.0043793 0.000246826
0.0107807 0.0170371 0.00657717
-0.00457329 0.014482 0.00335917
-0.0188934 0.0196935 0.00328622
-0.0156034 -0.00691517 0.000580706
-0.028224 0.00262611 -0.00390349
0.00778487 -0.00432584 -0.0158424
0.0196612 0.00505056 -0.0195193
0.0144544 -0.00889666 0.00943774
0.0281053 -0.00563406 0.00241525
-0.000939984 -0.00182606 0.0215963
-0.0160021 0.00223064 0.0189263
-0.0142729 -0.0155444 -0.00343735
-0.00867918 -0.0196941 -0.0127107
0.0142958 0.0016563 -0.0135291
0.0174653 0.00632304 -0.00337859
-0.00607598 0.00415107 0.021091
-0.00206899 0.0148846 0.0228431
0.00739546 -0.0160938 -0.0112345
0.00697893 -0.0255478 -0.00317811
0.0206209 -0.000537324 0.0108613
0.0197109 0.00875377 0.0176761
-0.004864 0.00732719 -0.0151875
-0.0156536 0.00694006 -0.0142984
-0.00121011 -0.00798869 0.0101913
-0.000280186 -0.0214673 0.012576
0.000962269 -0.00165355 -0.01649
-0.00498231 -0.000941274 -0.0257021
0.00380947 0.0145076 0.0021904
0.00781771 0.0116534 -0.00449273
-0.0099441 0.0183791 0.0003466
-0.00738893 0.0224442 -0.00731664
-0.0206507 -0.00539836 0.00246889
-0.0192061 -0.0124023 0.012449
-0.00199933 -0.0136282 0.0141766
-0.00509153 -0.0127256 0.0216993
-0.00130536 0.0134273 -0.0161768
0.00352637 0.0182382 -0.0112207
0.00546788 0.0185961 0.00843613
0.00427246 0.0229774 0.0148678
-0.0095682 -0.0186848 -0.00578821
-0.00386328 -0.0220175 -0.00123516
0.00947518 -0.00838552 0.00880566
0.0130006 -0.0126765 -0.00114819
-0.0104236 0.00407026 -0.0147754
-0.0123887 -0.00386227 -0.014732
-0.0128971 -0.0183223 -0.0104506
-0.0179386 -0.017317 -0.0134278
0.00691798 -0.0106141 -0.0163932
0.00524514 -0.00997274 -0.0243924
-0.00607184 -0.0187542 0.0140077
-0.0128828 -0.0204203 0.0148795
0.0183653 0.00270857 -0.00995599
0.0252075 8.09833e-05 -0.0123685
0.000553417 -0.0151822 0.0193626
0.00621373 -0.0179515 0.0213299
-0.000657071 0.00971707 0.00472398
0.00171966 0.0118968 0.0126797
0.0173154 0.00459663 0.0132425
0.0098557 0.00717983 0.0115773
-0.00738345 0.0119128 0.0183553
-0.0111925 0.0172645 0.0137013
-0.00334084 -0.00373498 -0.0218147
-0.00761217 -0.00990126 -0.0249788
-0.0112095 -0.00457485 0.00580777
-0.0117453 -0.00535561 0.0148144
0.0104207 -0.0138243 0.00515164
0.0088229 -0.0229058 0.0071314
-0.000698333 0.00081349 -0.0053675
-0.00645497 -0.00759614 -0.00666404
-0.00340976 0.00229777 0.00284319
-0.0107302 0.00592976 0.00584935
0.0232513 -0.00405368 0.0043968
0.0214617 -0.00727089 -0.00257363
-0.0130853 0.0129849 0.0141845
-0.0190547 0.0117897 0.0107518
0.0124442 0.0171852 0.00675668
0.0194218 0.0160163 0.00536692
0.000958248 -0.00141902 0.0254067
0.00973172 -0.0045272 0.0267061
-0.0232756 0.000399079 -0.00277406
-0.0213699 0.00613595 -0.00897321
0.00256323 0.016952 -0.0152728
0.00698908 0.0205174 -0.0186125
-0.00467803 0.00380258 -0.0100731
-0.0106704 0.00522714 -0.00353287
0.0162431 -0.00364794 0.0081114
0.0120332 -0.00209314 0.00266711
0.0048376 -0.0197067 -0.00740754
-0.00114472 -0.0154912 -0.00907594
0.00756038 -0.00892414 0.0137029
0.0118526 -0.0151843 0.0170642
-0.00297718 -0.00370149 0.00806933
-0.00142892 0.00106529 0.0126353
0.0206633 0.0079394 -0.00551192
0.0242866 0.0133557 -0.00266357
-0.0203413 -0.00695542 0.0100834
-0.0211965 -0.0029548 0.0182577
-0.0141829 -0.000692496 -0.0163478
-0.0183917 -0.00330337 -0.0185409
0.0152528 0.00649666 0.0103937
0.0184742 0.00843022 0.00497134
0.0113408 -0.017959 -0.0127898
0.0166597 -0.0189263 -0.00789527
0.017266 0.0100341 0.0148413
0.016 0.0154644 0.0148323
-0.00104641 -0.00448449 -0.00629498
0.00463756 -0.00849687 -0.00719817
-0.00277331 0.0106087 -0.0137017
-0.00146426 0.0120753 -0.00875048
-0.00933055 -0.0198647 0.012442
-0.00992614 -0.020816 0.00741964
0.00189598 0.0126577 -0.0208852
0.00620662 0.00988712 -0.0246007
-0.0117089 -0.0109421 -0.00147687
-0.00321502 -0.0114351 -0.0021757
0.0110753 -8.48612e-05 -0.0173575
0.0102351 0.0022746 -0.0245581
0.00667751 0.0206307 -0.013537
0.0101462 0.023928 -0.00946998
-0.0223757 -0.000762624 0.000890174
-0.0238115 0.00453219 0.00282257
0.00273107 -0.00285561 0.0189408
0.0131068 0.000485347 0.0220663
-0.00835002 0.00767947 -0.0141568
-0.00937182 0.0132381 -0.0120952
-0.0233957 0.00199871 -0.00735598
-0.0258825 -0.000444362 -0.0120533
0.0167456 0.00551881 -0.00807512
0.00995435 0.00676704 -0.00831755
0.0222504 -0.00220899 -0.0117761
0.0241944 -0.00768611 -0.0130833
0.0097298 -0.00751829 -0.0167471
0.0157218 -0.00854084 -0.018444
0.00521008 0.0191401 0.00390111
0.00691634 0.0263796 0.00116209
0.0100517 -0.0191552 0.0081913
0.0109289 -0.0224842 0.013745
-0.0164837 0.0122179 0.0141702
-0.0184004 0.0116116 0.0180566
-0.0130272 0.0192598 0.00346162
-0.0107274 0.0200221 0.0081121
-0.0125296 0.00300694 -0.0175805
-0.0136489 0.00571582 -0.0229964
-0.00405113 -0.00127777 0.0227285
-0.00471408 -0.00840664 0.0263618
0.00344814 0.0200114 -0.0150124
-0.000153916 0.0226233 -0.0168225
-0.00678191 0.00828541 0.020566
-0.00710251 0.00984261 0.0257437
-0.0220472 0.00814117 -0.00921769
-0.0211978 0.014555 -0.01098
0.00939597 0.0178668 0.0092365
0.00953057 0.0180069 0.0136938
-0.0241343 0.00388289 0.00431467
-0.0258449 0.00765072 0.00807753
0.00464736 0.0238199 0.00266668
0.00125035 0.02758 0.00262275
0.0215941 0.0008787 -0.00955032
0.0243465 0.00319841 -0.00590704
0.000863866 0.00174087 -0.00274851
0.00582076 -0.00351453 -0.00390443
0.00847863 0.018689 -0.0171684
0.0108101 0.0160644 -0.0196454
-0.00405517 0.0139442 0.0190046
-0.00157041 0.0157714 0.0155454
-0.0166955 -0.018825 -0.00343097
-0.0192321 -0.019083 -0.00694784
0.00766366 0.0137073 -0.000394494
0.0129936 0.0149112 0.0005965
-0.0187733 0.0179603 0.00271575
-0.0237752 0.0159489 0.00177343
-0.00659128 0.0190294 0.00290687
-0.00564231 0.0262687 0.00518675
0.011457 -0.010715 0.0156192
0.0165714 -0.00816576 0.0167053
0.00470858 -0.0023378 -0.0158114
0.00676652 0.00166666 -0.0136316
0.0140995 0.0101394 -0.0091572
0.0151345 0.0156584 -0.0104841
0.0231655 -0.00789973 -0.0109037
0.0234573 -0.0130198 -0.00904545
-0.00889649 0.0188077 -0.00394766
-0.00985289 0.0141026 -0.00404256
-0.0215301 0.00394712 -0.00948059
-0.0186593 0.000182371 -0.0122843
-0.0140237 -0.0167009 -0.0120876
-0.0111589 -0.0136807 -0.0128947
0.0168796 0.0141645 -0.00957512
0.0202013 0.0169635 -0.00948879
0.0221409 0.0108925 -0.00236978
0.0217995 0.0122962 0.00245474
0.00471696 0.0107685 -0.0208985
0.00704448 0.009077 -0.0166862
0.0158579 0.000947854 -0.0105759
0.0152239 -0.00207645 -0.00706562
-0.00601049 -0.0121092 -0.000678936
-0.00106477 -0.014547 0.00217155
-0.0123847 -0.00865512 0.0109728
-0.0137398 -0.0138994 0.0136021
0.0184636 0.00745879 0.00788294
0.0230383 0.00772305 0.00762364
0.0108001 0.0168492 -0.00137508
0.0124664 0.020586 -0.00322473
-0.0206867 0.0147885 0.00382864
-0.0208282 0.0114141 0.00583665
-0.00567029 0.0232864 0.00205163
-0.00438657 0.0259596 -0.00275313
-0.0138553 -0.00508837 0.00284137
-0.0166124 -0.00105471 0.000673732
0.000109409 0.0170137 0.00128937
0.00257034 0.0234944 -0.00269722
0.00195652 -0.0169466 -0.00660223
0.00138496 -0.014667 -0.00262468
0.00865245 -0.0117848 -0.0130421
0.0124304 -0.00696707 -0.0117947
-0.00401128 0.00488026 -0.0141043
-0.00213739 0.00463035 -0.0200865
-0.0211235 -0.00280034 0.0130215
-0.0221577 0.00331201 0.0112346
-0.0142854 -0.0128991 -0.00346104
-0.0179806 -0.0126716 -0.00632263
0.00334053 -0.0117498 -0.0182523
-0.000126074 -0.0138832 -0.0137727
0.00588691 0.00121005 0.0199627
0.00214397 0.00784639 0.0190184
0.00968276 -0.00245689 -0.0146113
0.00986242 -0.00370956 -0.00928112
0.00105748 0.00738114 0.00273469
0.00707699 0.0094264 0.00426599
0.00196633 -0.0059281 0.0123351
0.00847406 -0.00253295 0.00991243
-0.00558189 -0.00619785 0.0245107
-0.00876048 -0.0107022 0.024941
0.0060758 -0.00645921 0.0149403
0.0108895 -0.00345344 0.0177355
-0.0115859 -0.0161786 -0.0157948
-0.00965188 -0.0169674 -0.0205106
0.0165046 0.00239634 -0.0172742
0.0160526 0.000420152 -0.0200584
0.0118178 -0.0152015 0.0014192
0.0124621 -0.0200548 -0.000978705
-0.0120636 0.0207613 -0.00634742
-0.0174781 0.0209483 -0.00733517
0.0135447 -0.019297 0.000980642
0.0156072 -0.0225259 0.00157397
-0.00825498 0.00584248 0.00490608
-0.0123479 0.0108066 0.00677503
-0.00911025 0.0126664 -0.0159968
-0.00964919 0.0167739 -0.0195685
-0.0102538 0.00284131 0.0182261
-0.00965268 0.00166812 0.0133332
LINES 259 777
2 120 1
2 100 2
2 174 3
2 76 4
2 110 5
2 130 6
2 16 7
2 78 8
2 84 9
2 64 10
2 178 11
2 216 12
2 88 13
2 184 14
2 246 15
2 50 16
2 80 17
2 86 18
2 258 19
2 228 20
2 54 21
2 124 22
2 102 23
2 152 24
2 172 25
2 222 26
2 96 27
2 94 28
2 112 29
2 224 30
2 52 31
2 238 32
2 58 33
2 4 34
2 70 35
2 218 36
2 176 37
2 180 38
2 250 39
2 12 40
2 104 41
2 32 42
2 62 43
2 116 44
2 90 45
2 142 46
2 46 47
2 20 48
2 48 49
2 98 50
2 248 51
2 132 52
2 106 53
2 48 54
2 194 55
2 140 56
2 230 57
2 42 58
2 118 59
2 202 60
2 138 61
2 42 62
2 62 63
2 236 64
2 64 65
2 28 66
2 108 67
2 156 68
2 82 69
2 34 70
2 70 71
2 2 72
2 206 73
2 50 74
2 144 75
2 168 76
2 114 77
2 2 78
2 254 79
2 28 80
2 80 81
2 68 82
2 146 83
2 160 84
2 84 85
2 0 86
2 86 87
2 128 88
2 158 89
2 44 90
2 170 91
2 4 92
2 92 93
2 16 94
2 94 95
2 26 96
2 220 97
2 242 98
2 182 99
2 32 100
2 100 101
2 136 102
2 198 103
2 40 104
2 226 105
2 150 106
2 106 107
2 66 108
2 208 109
2 26 110
2 110 111
2 66 112
2 112 113
2 76 114
2 114 115
2 30 116
2 116 117
2 58 118
2 118 119
2 44 120
2 200 121
2 12 122
2 204 123
2 234 124
2 124 125
2 154 126
2 126 127
2 40 128
2 162 129
2 18 130
2 232 131
2 30 132
2 256 133
2 88 134
2 134 135
2 60 136
2 186 137
2 166 138
2 188 139
2 14 140
2 140 141
2 36 142
2 164 143
2 74 144
2 144 145
2 82 146
2 146 147
2 38 148
2 148 149
2 52 150
2 150 151
2 18 152
2 240 153
2 90 154
2 154 155
2 24 156
2 156 157
2 192 158
2 158 159
2 46 160
2 160 161
2 128 162
2 162 163
2 142 164
2 164 165
2 60 166
2 166 167
2 8 168
2 168 169
2 126 170
2 170 171
2 68 172
2 172 173
2 20 174
2 174 175
2 36 176
2 210 177
2 148 178
2 212 179
2 10 180
2 214 181
2 98 182
2 182 183
2 34 184
2 184 185
2 136 186
2 196 187
2 138 188
2 188 189
2 38 190
2 190 191
2 134 192
2 192 193
2 54 194
2 244 195
2 186 196
2 196 197
2 102 198
2 198 199
2 120 200
2 200 201
2 22 202
2 202 203
2 122 204
2 204 205
2 72 206
2 206 207
2 108 208
2 208 209
2 176 210
2 210 211
2 178 212
2 212 213
2 180 214
2 214 215
2 72 216
2 216 217
2 10 218
2 218 219
2 96 220
2 220 221
2 56 222
2 222 223
2 92 224
2 224 225
2 104 226
2 226 227
2 122 228
2 228 229
2 56 230
2 230 231
2 130 232
2 232 233
2 14 234
2 234 235
2 8 236
2 236 237
2 6 238
2 238 239
2 152 240
2 240 241
2 6 242
2 242 243
2 194 244
2 244 245
2 22 246
2 246 247
2 74 248
2 252 249
2 190 250
2 250 251
2 248 252
2 252 253
2 78 254
2 254 255
2 132 256
2 256 257
2 24 258
2 258 259
CELL_DATA 259
SCALARS radius float
LOOKUP_TABLE default
0.257874
1.18843
0.247215
0.955405
0.296186
1.26052
0.216475
1.08403
0.237415
0.704408
0.212441
0.707611
0.230821
0.801413
0.258433
0.537925
0.25449
1.28815
0.220928
0.518223
0.256691
0.668234
0.266534
0.463151
0.226762
0.508993
0.29838
0.513208
0.256214
0.66617
0.244482
1.20514
0.229202
0.821171
0.232992
0.564058
0.235104
0.506779
0.271858
0.563928
0.239878
0.401356
0.233005
0.557744
0.236129
0.45277
0.276975
0.479874
0.262274
0.604336
0.209172
0.428687
0.272163
0.452193
0.2607
0.565842
0.262973
0.340072
0.233787
0.634681
0.256979
0.293659
0.23315
0.711502
0.220134
0.459512
0.257867
0.414366
0.233501
0.313171
0.262398
0.727372
0.221775
0.402197
0.226201
0.96428
0.227237
1.08962
0.187584
0.33662
0.278759
0.36193
0.258255
0.37631
0.34173
1.2897
0.197679
0.459491
0.24467
0.482416
0.286999
0.682819
0.231561
0.525976
0.217867
0.431566
0.296276
0.620277
0.202144
1.19011
0.192435
0.429491
0.293717
0.377594
0.264273
0.357106
0.293876
0.38809
0.259921
0.372021
0.294355
0.337885
0.279163
0.290554
0.233893
0.569107
0.221192
0.301064
0.243908
0.394147
0.272404
0.559316
0.217089
0.678371
0.239783
0.435125
0.295666
0.500667
0.201385
1.26456
0.212437
0.481038
0.24268
0.439192
0.252867
0.542783
0.28469
0.429354
0.279761
0.577499
0.225256
0.504582
0.250918
0.303772
0.254361
0.326104
0.259401
0.422618
0.238352
0.400349
0.265086
0.486748
0.183661
0.462769
0.255711
0.428814
0.197506
0.366567
0.325885
0.415187
0.26343
0.305413
0.272885
0.32912
0.270772
0.457489
0.255105
0.967425
0.206463
0.383807
0.320422
0.287389
0.229425
0.306049
0.23845
0.370827
0.258571
0.395664
0.296518
0.539694
0.230062
0.26174
0.213056
0.805699
0.202487
0.432115
0.28355
0.396169
0.3428
0.379536
0.236188
0.409256
0.268194
0.422745
0.295341
0.386223
0.326528
0.392117
0.326955
0.353257
0.287927
0.64429
0.227598
0.299569
0.255366
0.28543
0.231124
0.345674
0.287424
0.336193
0.274619
0.374095
0.297319
0.30016
0.245887
0.712416
0.193687
0.577224
0.234297
0.377542
0.30296
0.526654
0.242205
0.673824
0.217631
0.34209
0.278393
0.529064
0.207376
0.327401
0.256667
0.268194
0.213292
0.685496
0.215015
0.716886
0.201969
1.20683
0.194625
0.251835
0.213826
0.6259
0.187092
0.386714
0.317714
0.313934
0.239161
0.33331
0.224933
0.346205
0.277646
0.303215
0.254566
0.270687
0.23653
0.319225
0.263224
0.273682
0.213384
