# vtk DataFile Version 3.0
Tree
ASCII
DATASET POLYDATA
POINTS 260 float
0 0 0.0287941
0.0140818 0.024017 -0.0259948
0.00368876 0.0020265 -0.00283876
-0.00291935 -0.0202105 -0.0215645
-0.00278217 -0.00329468 0.017903
-0.0269867 -0.0274417 0.0120064
-0.000834652 -0.000988405 0.0255268
0.0279792 0.0156412 0.0221424
0.00069622 0.0126277 -0.00958347
-0.0159072 0.0210389 -0.00707897
0.00805702 -0.011789 -0.00749561
0.0249538 -0.0282544 -0.00341975
0.0122374 0.00119405 0.0206257
0.0211536 -0.00744787 0.010924
-0.000250396 -0.000296521 0.0278139
-0.0118752 0.0258239 0.0213217
0.00536098 -0.00321422 0.0239261
0.0107398 -0.0223432 0.0263457
0.00620256 -0.0133286 -0.0139808
0.0159796 -0.00654421 -0.0266855
-0.00100427 0.0154991 0.0205442
0.0103427 0.0262646 0.00927033
-0.00790693 0.0126722 -0.0115642
-0.028734 -0.00327628 -0.0285615
-0.00767137 0.0191565 0.0189488
-0.0214491 0.0158113 0.00720447
0.0228787 0.0105038 0.017654
0.0277537 0.0138042 0.00784585
-0.00212325 0.0142943 -0.00905848
-0.00285105 0.024446 -0.00201364
0.00923619 0.0203689 -0.0141082
0.0158983 0.0272584 -0.00698753
0.0082896 -0.0130116 0.0208623
0.00967311 -0.016343 0.0102186
-0.0124535 -0.0203821 0.0167613
-0.00909654 -0.027306 0.0192561
0.0101183 -0.00616804 -0.0223583
0.00622019 0.00255279 -0.025751
-0.0100179 -0.0114329 0.0189208
-0.0247609 -0.00894191 0.0286801
0.00691189 -0.00175942 -0.00366021
0.0182866 0.00162844 0.000274775
-0.0175482 0.0107554 -0.0173295
-0.0244883 0.0194966 -0.0175854
-7.29176e-05 -0.00119306 0.00203598
-0.0107007 -0.0107081 -0.00802108
0.0202917 -0.0182715 -0.00135789
0.0255205 -0.0158546 0.00430373
-0.0102892 0.0105869 -0.0143261
-0.00632916 0.00147384 -0.0201737
0.0148385 -0.000529479 -0.00333311
0.0285942 -0.00337969 -0.0134098
0.0259043 0.0156114 0.020356
0.02591 0.0282722 0.0206033
0.00882883 -0.0127937 -0.0173658
0.0174098 -0.023318 -0.0220027
-0.0118627 -0.00761684 -0.00368915
-0.0269966 -0.0105422 -0.0040437
0.00742424 0.0166467 -0.011583
0.0176436 0.0131347 -0.00738291
0.0107212 -0.0167812 0.0218072
0.0209326 -0.0219409 0.0170364
0.00799439 0.0231516 0.0171884
0.0125863 0.0262859 0.0203386
-0.00284563 -0.016242 -0.0209947
-0.0130811 -0.0139022 -0.0281965
-0.0111155 -0.0108786 -0.00654704
-0.010759 -0.0196538 -0.00832203
0.0132046 0.0199813 -0.0204378
0.0178712 0.0148154 -0.0231293
-0.0224983 -0.0130465 -0.0064741
-0.028227 -0.0228294 -0.0131289
-0.00970191 -0.0155405 0.0176116
-0.0016719 -0.0183998 0.0149678
-0.0180766 -0.0124976 -0.0046414
-0.0175042 -0.0226999 -0.000345742
0.00285193 0.0201933 0.0172775
-0.00109874 0.0255247 0.00751763
0.0138314 0.0141145 -0.00595321
0.0157077 0.0126204 0.00252328
-0.0178992 -0.0242723 0.0178477
-0.0194455 -0.0282246 0.0247169
0.0180133 -0.0213658 -0.0201336
0.0269201 -0.0253667 -0.0193017
-0.00720096 -0.00593989 -0.000571333
-0.00803917 -0.0116981 0.00426816
-0.0121305 -0.0157043 -0.0254474
-0.0184595 -0.0183326 -0.0245513
0.0161715 0.00623517 0.0206263
0.0137349 0.0139278 0.0280587
0.00946506 -0.0212658 0.0249083
0.00168107 -0.0285527 0.027425
0.0164292 0.0190301 -0.0214692
0.0272377 0.0231498 -0.0226143
0.0134924 -0.0192894 -0.0190282
0.00868246 -0.0279646 -0.0191572
0.00400426 0.0143763 -0.0124178
0.00366043 0.0127738 -0.0236873
0.0051281 0.0127531 -0.0159634
0.0126948 0.00587286 -0.0160095
-0.0252567 -0.0108816 -0.00388386
-0.0258148 -0.00670583 0.00317402
-0.0236189 -0.00237207 -0.0249219
-0.0221482 -0.00813922 -0.0255117
-0.0122742 0.0198249 -0.0117518
-0.0143613 0.0286555 -0.0173601
0.0261266 0.0145159 0.0120107
0.0275142 0.0201179 0.0115108
0.0190269 -0.0058572 0.00997045
0.0205482 -0.00798151 0.00380278
-0.00853565 -0.00868722 0.0176836
-0.0133851 -0.00751615 0.0120468
0.0103236 -0.0151637 -0.0046788
0.000651152 -0.0233921 0.000787418
-0.000133119 -0.00184611 0.01008
0.00781836 0.000597257 0.0107588
-0.025302 -0.0220199 -0.012356
-0.0226911 -0.0283238 -0.0160725
0.0210101 0.0199879 -0.0191842
0.023525 0.0189198 -0.012327
-0.018603 0.00685304 -0.0217642
-0.0161118 0.00807056 -0.0266599
-0.0200654 -0.0254196 0.0230256
-0.0234267 -0.0227237 0.0265271
-0.0104642 -0.00711375 -0.00275381
-0.0195068 0.00375575 0.00136487
0.00972072 0.0224142 0.0134754
0.012147 0.0178497 0.0107144
-0.0214584 0.0144205 -0.0154494
-0.0281281 0.0150816 -0.00326077
0.0154112 -0.00722143 -0.0254572
0.0232235 -0.012107 -0.0262575
0.0191994 -0.0191848 0.0176387
0.0234952 -0.0165202 0.0150983
0.015735 -0.0160941 0.0202079
0.0189382 -0.0115804 0.0208593
0.0230224 -0.0207408 -0.00394351
0.0260481 -0.0185337 -0.00882494
0.014262 -0.00559365 -0.0244701
0.0204349 0.00177208 -0.0261534
0.0121597 0.025308 -0.0131482
0.0128659 0.0286839 -0.0153829
-0.00875166 0.0221853 0.0178154
-0.00792626 0.0242586 0.0128671
0.00358969 -0.015638 -0.015706
0.00498928 -0.0242062 -0.0127769
-0.0143333 0.0100511 -0.0151025
-0.0168804 0.00624261 -0.0106471
-0.0147057 0.0161716 0.0160261
-0.017531 0.0137223 0.0178621
0.0191714 -0.0208516 0.01674
0.015657 -0.0257753 0.0123809
0.0142005 0.000207957 0.0163953
0.0131654 0.00774936 0.0109575
-0.00495827 0.0232422 -0.00277306
-0.00823214 0.0266557 -0.000299371
-0.000338329 0.0206923 0.0114498
-0.0040268 0.0158826 0.00761858
-0.0204244 -0.0180209 -0.000953256
-0.0271159 -0.0205638 0.00362122
-0.00929179 -0.0233516 0.0197157
-0.00499817 -0.0230743 0.0244615
-0.0190457 0.00120155 -0.00184706
-0.0256109 0.00395032 -0.00657601
-0.000115058 -0.0016502 0.00766677
-0.0113087 0.00513444 0.00725875
-0.0180718 -0.0130559 0.0211735
-0.0218223 -0.0165427 0.0194046
0.0047783 -0.0250129 0.0242324
0.00162262 -0.0263203 0.0196181
-0.0121949 0.0252797 -0.0171029
-0.00900926 0.0266912 -0.0228511
-0.00470047 0.0136283 -0.0111795
-0.00276779 0.0145195 -0.0165126
0.0187612 -0.0186211 0.0193947
0.0247307 -0.0228855 0.0237583
0.0170724 -0.0247922 0.0124854
0.018989 -0.0282491 0.00472019
0.00339984 0.00571637 -0.00472065
0.00739636 0.00793757 -0.00327323
-0.000834652 -0.000988405 0.0255268
-0.0147255 0.00377422 0.0226569
0.00952896 -0.00170251 0.0224556
0.0140119 -0.00595598 0.0235596
0.00301366 0.0107805 -0.0214295
-0.000326782 0.00567841 -0.024451
0.0171891 -0.0182651 -0.00222161
0.0173542 -0.0242195 -0.00112271
0.0238833 0.0137803 0.0187719
0.0207613 0.0182201 0.0173402
-0.0221756 -0.0089472 0.0238087
-0.0250837 -0.00308368 0.0220059
0.0223442 -0.0201304 0.0237508
0.0230296 -0.0179193 0.0287187
-0.00198746 -0.00286011 0.0155561
-0.00816721 0.00290064 0.0146325
-0.013733 -0.00238982 -0.00385428
-0.012331 0.000254233 -0.00772034
0.00802742 -0.00311606 -0.0222605
0.0059921 -0.0027431 -0.0191011
-0.0184362 -0.0177425 -0.0242337
-0.023801 -0.018478 -0.0226491
0.0214959 -0.000418741 -0.00467794
0.0268244 0.00230905 0.000501101
-0.0171516 0.00995964 -0.0192979
-0.0126812 0.0125975 -0.0228372
0.0209842 -0.00518365 0.00730196
0.0247131 -0.00163083 0.00572669
0.025008 -0.00466821 -0.0106242
0.0238986 -0.0113655 -0.0134405
-0.012043 0.0246372 0.0193597
-0.0226678 0.0285233 0.0180767
-0.0100337 -0.0149661 -0.0233773
-0.0150596 -0.00939467 -0.019248
-0.00874558 -0.000934349 0.0257295
-0.0104964 -0.00242272 0.0268112
0.0172396 0.0136964 -0.00720388
0.0221098 0.0152571 -0.00886142
0.0112529 0.0199673 -0.0191295
0.00691697 0.0191341 -0.0232994
-0.0237477 -0.0226989 0.0258478
-0.0284145 -0.0195542 0.0281027
0.00256026 0.00106063 -0.00137634
-0.000646824 -0.000403673 -0.00510599
-0.0116009 -0.0189292 -0.0087091
-0.0133584 -0.0270949 -0.011733
0.0054519 0.0209722 0.0182627
0.00856698 0.0183616 0.0245371
-0.0154303 -0.0225432 0.0164646
-0.01699 -0.0238705 0.0113052
0.000428948 -0.0152537 -0.018575
0.000778574 -0.011038 -0.0199554
-0.0141066 -0.00187932 -0.00587435
-0.0191059 -0.00384266 -0.0108274
-0.00530165 0.0175719 0.0202307
-0.00741253 0.0169811 0.0241172
0.0165011 -0.00221726 0.0122616
0.0158091 0.00151365 0.00660243
0.00784566 -0.0234282 0.0235649
0.00961485 -0.0273434 0.0170024
0.00735233 -0.0123741 -0.00995998
0.0132704 -0.00999531 -0.012556
-0.0192362 0.0170265 0.014009
-0.025106 0.0195334 0.0163838
-0.0182471 -0.0250521 0.0202297
-0.0149688 -0.0269744 0.021917
-0.0197603 0.00379679 0.000654763
-0.022207 0.00897482 0.00248711
-0.016573 -0.0237937 0.011399
-0.0172832 -0.0251132 0.0057436
-0.0232047 0.00168662 -0.0222954
-0.0278721 0.00158025 -0.0191506
0.00902589 0.0160708 -0.00922945
0.00650803 0.0174167 -0.00562929
0.00823154 -0.0100473 0.0217649
0.0135229 -0.0107332 0.0214011
-0.00877581 0.00522448 0.0058953
-0.0118572 0.0112714 0.00203956
-0.0109045 0.026846 -0.0222391
-0.0130476 0.028454 -0.0255925
LINES 259 777
2 68 1
2 222 2
2 64 3
2 180 4
2 80 5
2 14 6
2 52 7
2 178 8
2 104 9
2 40 10
2 136 11
2 182 12
2 108 13
2 0 14
2 210 15
2 6 16
2 90 17
2 240 18
2 130 19
2 14 20
2 126 21
2 172 22
2 102 23
2 234 24
2 242 25
2 88 26
2 106 27
2 8 28
2 154 29
2 58 30
2 140 31
2 254 32
2 32 33
2 72 34
2 160 35
2 54 36
2 198 37
2 110 38
2 190 39
2 2 40
2 50 41
2 146 42
2 128 43
2 164 44
2 66 45
2 186 46
2 46 47
2 22 48
2 48 49
2 40 50
2 208 51
2 188 52
2 52 53
2 18 54
2 82 55
2 124 56
2 100 57
2 96 58
2 216 59
2 32 60
2 150 61
2 226 62
2 62 63
2 230 64
2 86 65
2 56 66
2 224 67
2 218 68
2 92 69
2 74 70
2 116 71
2 38 72
2 72 73
2 56 74
2 158 75
2 20 76
2 156 77
2 252 78
2 78 79
2 228 80
2 122 81
2 94 82
2 82 83
2 44 84
2 84 85
2 212 86
2 200 87
2 12 88
2 88 89
2 60 90
2 168 91
2 68 92
2 118 93
2 54 94
2 94 95
2 8 96
2 184 97
2 96 98
2 98 99
2 70 100
2 100 101
2 250 102
2 102 103
2 22 104
2 170 105
2 26 106
2 106 107
2 236 108
2 206 109
2 4 110
2 110 111
2 10 112
2 112 113
2 194 114
2 114 115
2 70 116
2 116 117
2 92 118
2 118 119
2 204 120
2 120 121
2 244 122
2 220 123
2 84 124
2 246 125
2 62 126
2 126 127
2 42 128
2 128 129
2 138 130
2 130 131
2 174 132
2 132 133
2 60 134
2 134 135
2 46 136
2 136 137
2 36 138
2 138 139
2 30 140
2 140 141
2 24 142
2 142 143
2 18 144
2 144 145
2 48 146
2 146 147
2 24 148
2 148 149
2 132 150
2 176 151
2 12 152
2 152 153
2 28 154
2 154 155
2 76 156
2 156 157
2 74 158
2 158 159
2 34 160
2 160 161
2 196 162
2 162 163
2 114 164
2 256 165
2 38 166
2 166 167
2 238 168
2 168 169
2 104 170
2 258 171
2 28 172
2 172 173
2 134 174
2 192 175
2 150 176
2 176 177
2 2 178
2 178 179
2 6 180
2 214 181
2 16 182
2 182 183
2 98 184
2 184 185
2 112 186
2 186 187
2 26 188
2 188 189
2 166 190
2 190 191
2 174 192
2 192 193
2 4 194
2 194 195
2 124 196
2 232 197
2 36 198
2 198 199
2 86 200
2 200 201
2 50 202
2 202 203
2 42 204
2 204 205
2 108 206
2 206 207
2 202 208
2 208 209
2 142 210
2 210 211
2 64 212
2 212 213
2 180 214
2 214 215
2 78 216
2 216 217
2 30 218
2 218 219
2 122 220
2 220 221
2 44 222
2 222 223
2 66 224
2 224 225
2 76 226
2 226 227
2 34 228
2 248 229
2 144 230
2 230 231
2 196 232
2 232 233
2 20 234
2 234 235
2 152 236
2 236 237
2 90 238
2 238 239
2 10 240
2 240 241
2 148 242
2 242 243
2 80 244
2 244 245
2 162 246
2 246 247
2 228 248
2 248 249
2 120 250
2 250 251
2 58 252
2 252 253
2 16 254
2 254 255
2 164 256
2 256 257
2 170 258
2 258 259
CELL_DATA 259
SCALARS radius float
LOOKUP_TABLE default
0.255909
1.0159
0.21827
1.15223
0.269878
1.23875
0.210282
0.825322
0.23663
0.744959
0.293291
0.55159
0.204704
1.27907
0.195667
0.7069
0.173209
0.67452
0.202776
0.576603
0.256518
0.650873
0.324723
0.457136
0.279381
0.44241
0.251902
0.680227
0.222567
0.517504
0.274024
0.556386
0.228874
0.512542
0.220181
0.470139
0.280972
0.572906
0.24811
0.783053
0.20622
0.552308
0.260616
1.08983
0.158809
0.402932
0.266946
0.582658
0.257892
0.40559
0.261335
0.338024
0.308373
0.553068
0.230183
0.539434
0.197759
0.585333
0.17778
0.543165
0.189879
0.361106
0.235455
0.484042
0.251596
0.340611
0.185586
0.449986
0.247014
0.431758
0.253316
0.525738
0.220147
0.489728
0.249632
0.447271
0.243302
0.375092
0.278636
0.439405
0.227358
0.35213
0.315706
0.621332
0.208627
0.426044
0.217836
0.46366
0.235652
0.380382
0.256538
0.420508
0.311511
0.402608
0.278484
0.627791
0.222289
0.360583
0.251956
0.317805
0.289902
0.406166
0.319991
0.427131
0.24909
0.327771
0.26791
0.354937
0.256393
0.580836
0.199307
0.458972
0.262778
1.09865
0.199127
0.364401
0.317919
0.389926
0.307432
0.470692
0.249463
0.378808
0.194552
0.613391
0.174883
0.324068
0.257904
0.367955
0.317866
0.344108
0.318824
0.398056
0.233153
0.472085
0.211822
0.359328
0.276619
0.407395
0.299517
0.323089
0.236034
0.34944
0.217647
0.516411
0.244399
0.565306
0.230065
0.375297
0.217313
0.369376
0.215244
0.408455
0.226868
0.311589
0.267895
0.311817
0.25154
0.333122
0.277678
0.29591
0.24791
0.370173
0.271539
1.09646
0.196975
0.349593
0.212553
0.323617
0.257171
0.401404
0.260803
0.657696
0.206163
0.457419
0.240099
0.35183
0.322618
0.828322
0.183231
1.15671
0.23306
0.558904
0.189126
0.313761
0.271009
0.428248
0.235865
0.371756
0.233647
0.32115
0.261341
0.319568
0.265873
1.10076
0.197282
0.41949
0.202014
0.331105
0.24169
0.394522
0.371012
0.386979
0.247847
0.4914
0.243162
0.330611
0.268156
0.349595
0.291926
0.318665
0.291888
0.468771
0.295021
0.261642
0.173824
0.314612
0.294421
0.47157
0.239574
0.349263
0.327855
1.01786
0.18239
0.328691
0.307652
0.389649
0.229399
0.477296
0.143823
0.497479
0.213334
0.284774
0.245796
0.467579
0.188495
0.383649
0.227361
0.368013
0.251719
0.68166
0.214352
0.349242
0.27497
0.402448
0.221212
0.31313
0.293775
0.288029
0.275542
0.446069
0.279149
0.395683
0.209363
0.563213
0.18584
0.287624
0.252779
0.366481
0.315758
