# vtk DataFile Version 3.0
Tree
ASCII
DATASET POLYDATA
POINTS 260 float
0 0 0.0287941
0.0102224 -0.000465172 0.00635306
0.000150462 0.00251891 0.0221891
-0.0186399 0.0188893 0.0248949
4.51386e-05 0.000755672 0.0268126
-0.0221553 -0.011581 0.0280585
1.35416e-05 0.000226702 0.0281997
0.0223945 -0.0130672 0.0241893
4.06247e-06 6.80105e-05 0.0286158
0.00132201 -0.0254913 0.0271205
1.21874e-06 2.04031e-05 0.0287406
-0.015617 -9.78687e-05 0.0119061
3.65623e-07 6.12094e-06 0.0287781
0.00933642 0.0191295 0.0211355
0.000118865 0.00198994 0.0235762
-0.00453621 0.00159625 0.00111995
1.09687e-07 1.83628e-06 0.0287893
0.00518495 -0.0153922 0.0130483
0.00195127 0.00819167 0.0256425
-0.00406982 0.0215935 0.0211207
3.2906e-08 5.50885e-07 0.0287927
0.0192472 0.00816551 0.0221347
9.87181e-09 1.65265e-07 0.0287937
-0.0110552 -0.017405 0.015169
-0.00765834 7.92383e-05 0.0235341
-0.0245891 0.00066875 0.0240179
-0.00130124 0.00327917 0.0151873
-0.00104709 0.011958 0.00696416
0.00968243 -0.00904216 0.0271971
0.0153616 -0.0214816 0.0280567
0.00318622 -0.00513259 0.022881
0.0127587 -0.00698415 0.0169452
-0.00301291 -0.0129979 0.0280334
-0.0119005 -0.024688 0.0278174
0.00172061 -0.00277075 0.0255988
-0.000940864 -0.00831883 0.00782557
0.00453436 -0.0086243 0.0179967
0.0089611 -0.010287 0.00695582
0.0119478 0.00220569 0.0259315
0.026173 0.000877505 0.024281
-0.00760808 -0.0098014 0.022815
-0.0145372 -0.0151138 0.0230124
-0.00290942 4.27605e-05 0.0267621
-0.0141273 0.0129051 0.0136539
-0.00203623 3.60533e-05 0.0273557
-0.0244151 0.0106287 0.0269115
0.00701866 -9.16108e-05 0.0263908
0.0202637 -0.00617059 0.0187895
2.96154e-09 4.95796e-08 0.028794
0.0212292 0.0176358 0.0271379
7.31546e-05 0.00122469 0.0255828
0.00976901 0.00848527 0.0167402
-0.00243087 0.0166777 0.025207
-0.00853829 0.0270118 0.0279628
-0.00219355 -0.0058022 0.0148341
-0.00921685 -0.00725668 0.00746582
0.00804807 0.00518616 0.0193548
0.017474 0.007075 0.0134457
0.00428637 0.0146 0.0246382
0.00396076 0.0217032 0.0259187
0.000140983 0.00236021 0.0226052
-0.00275221 0.0165641 0.0135567
0.000402997 0.00820416 0.0186602
0.00759224 0.0167095 0.0118768
-0.0029371 -0.00615576 0.0251549
-0.00195914 -0.0194668 0.0177489
0.00470415 -0.000130947 0.0114324
0.00490286 -0.00353448 0.0018706
0.00763375 -0.00712766 0.0206364
0.0164931 -0.0158122 0.0182959
0.00216029 -0.00347931 0.0247835
0.00603303 -0.0186788 0.0250003
-0.011596 -0.000802744 0.019489
-0.0204354 -0.00587907 0.0170659
-0.000875208 0.0028924 0.017704
-0.0122747 0.0042029 0.00662884
-0.010718 0.00605892 0.019448
-0.0179768 0.00682922 0.0156209
-0.00134197 -0.00556147 0.0185103
-0.00589622 -0.0116613 0.0141804
-0.0111405 -0.0123455 0.0235926
-0.0194762 -0.0177279 0.0279885
0.0103403 0.0116287 0.0280213
0.0126678 0.0213758 0.0279272
0.00569696 -0.0156455 0.025314
0.00925878 -0.0252166 0.0263683
0.00348025 0.00205062 0.0154391
0.00994831 0.00731282 0.00701321
-0.0100808 -0.0115822 0.0233593
-0.020418 -0.0123437 0.020289
0.0173915 0.00692507 0.0242455
0.0230475 0.0122494 0.0242494
0.00856435 0.0061759 0.0185704
0.0138931 0.0142918 0.0143818
-0.00834988 -0.0103357 0.0229783
-0.0152609 -0.0103728 0.0166006
0.0201259 0.0088641 0.0248503
0.0260152 0.0105069 0.0285575
-0.00328267 0.000887056 0.00870817
-0.00560494 -0.00382159 0.00410525
0.0148907 -0.00326168 0.0247241
0.0237802 -0.00620273 0.0269537
0.00452048 -0.00573111 0.0222077
0.0114329 -0.00430396 0.0111088
0.00322354 0.0126363 0.0241925
0.00386682 0.0202562 0.0183699
0.0135809 0.0036215 0.0254257
0.0186159 0.00340307 0.0191471
-0.00398717 -0.0132825 0.0224214
-0.0075256 -0.0201988 0.0217406
-0.000669091 0.00638465 0.00974759
0.000738592 0.00693116 0.00280816
0.0118386 0.0050266 0.0167019
0.0169448 0.000403684 0.0118015
-0.0175992 -0.00137081 0.0244307
-0.0238121 -0.00577324 0.0261834
-0.0120642 0.00943091 0.0176404
-0.0137585 0.0169412 0.0177111
-0.013211 -0.00123462 0.0165658
-0.0153767 -0.00524695 0.0132331
-0.00898137 -0.0122924 0.0189637
-0.0107693 -0.0129305 0.0100518
-0.0138156 -0.00114689 0.0139897
-0.0128898 -0.00280033 0.00715193
0.014229 0.0140526 0.0268742
0.0171166 0.0173572 0.0215313
8.88463e-10 1.48739e-08 0.0287941
-0.00689834 0.0131924 0.0273641
-0.0033821 0.00694397 0.0260298
-0.00616605 0.0134921 0.0201474
0.0039142 0.0194443 0.0256718
0.00262809 0.0273853 0.0280882
0.00563766 0.00369027 0.0112912
0.00641621 0.0036139 0.00206141
-0.00229084 -0.00743017 0.0117828
-0.0053044 -0.0125771 0.00655523
-0.0169892 0.00665161 0.0245153
-0.0221864 0.00847342 0.0208996
0.00437956 -0.0136232 0.0246549
0.00310769 -0.024664 0.0216293
-0.00291765 -0.00978977 0.00988168
-0.000956203 -0.0143582 0.00828517
-0.00512063 0.00468233 0.0135885
-0.00921494 0.0131502 0.00966671
0.0174641 -0.00381321 0.0223238
0.0229101 -0.00159117 0.0190243
-0.00510923 0.0114489 0.0221337
-0.00716806 0.0190097 0.0162677
-0.0120805 -0.000932306 0.018612
-0.0212679 0.001753 0.0173865
-0.00138197 -0.00764883 0.00953314
0.0015976 -0.00727815 0.00334567
0.00938027 -0.00104263 0.0258908
0.0141864 -0.00124019 0.016996
0.00452146 -0.0176671 0.0229102
0.00784599 -0.0212148 0.0180279
-0.0033821 0.00694397 0.0260298
-0.0105936 0.0204864 0.0238629
-0.0126909 -0.00109555 0.0175071
-0.0164066 0.00482514 0.0103326
0.00692551 0.00778234 0.0272885
0.0117996 0.0132263 0.0208549
0.00530174 -0.0150389 0.0251162
0.0109534 -0.0195643 0.0228146
0.00674476 0.00541251 0.00929917
0.00523214 0.00900564 0.00531264
0.0131189 -0.00226314 0.0203893
0.0186128 -0.00523224 0.0138667
-0.0116721 0.00501335 0.026104
-0.0163928 0.0114886 0.0287625
-0.00433409 5.37038e-05 0.0257937
-0.00582381 -0.000141211 0.0162456
-0.0132673 0.00550483 0.0256274
-0.0202824 0.00353056 0.0271304
-0.00930257 0.0160909 0.0256185
-0.0142245 0.0202651 0.0276566
0.018886 -0.01227 0.0263788
0.0243922 -0.0148202 0.0285714
0.0132376 -0.00259596 0.0250741
0.0172082 -0.0103888 0.0213046
0.00391422 -0.00701812 0.0202435
0.0037751 -0.00629712 0.0111944
0.0111043 -0.0114401 0.0182046
0.012435 -0.0150854 0.0139574
0.00412747 0.00254251 0.0141947
0.012299 0.000811002 0.0107799
-0.0195864 0.00877992 0.0252429
-0.0212191 0.0141837 0.0250908
0.014768 -0.0115405 0.0263324
0.0177397 -0.0169736 0.0235336
0.00905281 -0.00528601 0.0133785
0.0108325 -0.00618026 0.00653039
-0.00247752 -0.00825197 0.0168119
-0.000669831 -0.0130154 0.0147294
0.00405562 0.0176035 0.025279
0.00932456 0.024888 0.02557
0.0048411 0.0164392 0.0205786
0.00844917 0.0196869 0.0162766
-0.00384558 -0.0103232 0.0155588
-0.00565621 -0.0164711 0.0129364
-0.00309396 -0.0113382 0.0234992
-0.000232299 -0.0172114 0.0232863
-0.00543661 -0.000767648 0.021525
-0.00933616 -0.00543719 0.0137174
-0.0132673 0.00550483 0.0256274
-0.0187057 0.0134923 0.0208606
-0.022001 -0.00307695 0.0258543
-0.0279944 -0.00369065 0.0280125
0.00540363 -0.0116117 0.0163952
0.00948874 -0.0169106 0.0161008
-0.0171176 0.00506977 0.0264174
-0.0272404 0.0062048 0.0283712
-0.00325072 -0.0162645 0.0210522
-0.00263799 -0.0226555 0.0216528
-0.00598754 -0.019654 0.0278604
-0.00601865 -0.0267497 0.0276007
-0.0137197 -0.0149263 0.0254711
-0.0134876 -0.0203999 0.0285328
-0.0204399 -0.00116346 0.0238926
-0.0244093 -0.00382318 0.0213835
0.0177997 0.00346716 0.0215114
0.0228939 0.00331991 0.0186217
-0.014617 -0.000935797 0.0241617
-0.0209815 -0.00797106 0.0219973
0.0179841 0.0080557 0.0230565
0.0180454 0.0126087 0.0198236
0.00358704 -0.00746073 0.0134745
0.00294447 -0.00962888 0.00899578
-0.00247889 -0.00813805 0.0112125
-0.00607173 -0.00870659 0.00431732
0.000134348 0.00224913 0.0228965
-0.00443692 0.00713144 0.0183522
-0.00304018 0.00104542 0.00552964
0.000866944 0.000650504 0.000638783
-0.00178724 0.00496815 0.0118771
-0.00635304 0.00757965 0.00514219
0.0114138 0.00915467 0.0152803
0.0141733 0.00985789 0.0104103
0.00371378 -0.0105801 0.0246935
0.00916153 -0.0154097 0.0201787
0.00399057 0.0184503 0.0254597
0.0048229 0.0241833 0.0219935
0.0213617 -0.00420049 0.0265204
0.027842 -0.00325338 0.0285914
0.00584446 -0.0130328 0.0147984
0.00897415 -0.0144717 0.0114445
-0.00189567 0.00256154 0.0132436
0.0015768 0.00251487 0.00642451
0.00491307 -6.39623e-05 0.0271114
0.00965501 0.00121198 0.0202613
0.0206747 0.00230356 0.0260904
0.0268578 0.00407314 0.0283852
0.00437961 0.00336389 0.0222196
0.00621777 0.00970215 0.0193783
0.00807847 0.0178906 0.023141
0.0120581 0.0211755 0.0232943
0.0145002 -0.0169616 0.0274622
0.0187756 -0.0195551 0.0269158
0.00422427 0.0125812 0.0137702
0.00583411 0.0141161 0.00894837
LINES 259 777
2 66 1
2 60 2
2 2 3
2 6 4
2 4 5
2 8 6
2 176 7
2 10 8
2 32 9
2 12 10
2 122 11
2 16 12
2 254 13
2 50 14
2 232 15
2 20 16
2 244 17
2 12 18
2 52 19
2 22 20
2 224 21
2 48 22
2 120 23
2 170 24
2 218 25
2 74 26
2 110 27
2 6 28
2 256 29
2 70 30
2 68 31
2 8 32
2 214 33
2 16 34
2 150 35
2 180 36
2 36 37
2 46 38
2 250 39
2 64 40
2 80 41
2 44 42
2 116 43
2 10 44
2 186 45
2 248 46
2 144 47
2 126 48
2 124 49
2 4 50
2 92 51
2 18 52
2 52 53
2 78 54
2 54 55
2 252 56
2 112 57
2 104 58
2 130 59
2 230 60
2 62 61
2 60 62
2 258 63
2 22 64
2 212 65
2 86 66
2 66 67
2 102 68
2 182 69
2 34 70
2 84 71
2 24 72
2 72 73
2 14 74
2 142 75
2 42 76
2 76 77
2 34 78
2 198 79
2 88 80
2 216 81
2 160 82
2 82 83
2 162 84
2 84 85
2 2 86
2 164 87
2 94 88
2 88 89
2 106 90
2 96 91
2 56 92
2 236 93
2 40 94
2 94 95
2 90 96
2 96 97
2 246 98
2 98 99
2 178 100
2 242 101
2 30 102
2 190 103
2 18 104
2 196 105
2 38 106
2 220 107
2 200 108
2 108 109
2 234 110
2 110 111
2 56 112
2 112 113
2 222 114
2 206 115
2 76 116
2 116 117
2 158 118
2 118 119
2 40 120
2 120 121
2 118 122
2 122 123
2 82 124
2 124 125
2 0 126
2 128 127
2 126 128
2 146 129
2 240 130
2 130 131
2 184 132
2 132 133
2 54 134
2 140 135
2 204 136
2 136 137
2 238 138
2 154 139
2 228 140
2 140 141
2 74 142
2 142 143
2 100 144
2 144 145
2 156 146
2 146 147
2 72 148
2 148 149
2 134 150
2 150 151
2 46 152
2 166 153
2 138 154
2 154 155
2 128 156
2 174 157
2 148 158
2 158 159
2 48 160
2 160 161
2 138 162
2 162 163
2 132 164
2 164 165
2 152 166
2 166 167
2 44 168
2 168 169
2 42 170
2 202 171
2 168 172
2 210 173
2 156 174
2 174 175
2 188 176
2 176 177
2 152 178
2 178 179
2 30 180
2 226 181
2 68 182
2 182 183
2 86 184
2 184 185
2 136 186
2 186 187
2 28 188
2 188 189
2 102 190
2 190 191
2 78 192
2 192 193
2 58 194
2 194 195
2 104 196
2 196 197
2 192 198
2 198 199
2 64 200
2 200 201
2 170 202
2 202 203
2 172 204
2 204 205
2 114 206
2 206 207
2 36 208
2 208 209
2 172 210
2 210 211
2 108 212
2 212 213
2 32 214
2 214 215
2 80 216
2 216 217
2 114 218
2 218 219
2 106 220
2 220 221
2 24 222
2 222 223
2 90 224
2 224 225
2 180 226
2 226 227
2 134 228
2 228 229
2 14 230
2 230 231
2 98 232
2 232 233
2 26 234
2 234 235
2 92 236
2 236 237
2 70 238
2 238 239
2 194 240
2 240 241
2 100 242
2 242 243
2 208 244
2 244 245
2 26 246
2 246 247
2 20 248
2 248 249
2 38 250
2 250 251
2 50 252
2 252 253
2 58 254
2 254 255
2 28 256
2 256 257
2 62 258
2 258 259
CELL_DATA 259
SCALARS radius float
LOOKUP_TABLE default
0.227729
0.451891
0.260757
0.692496
0.254189
0.736208
0.227979
0.762222
0.244541
0.894593
0.196359
0.942207
0.200923
0.628958
0.22837
1.04201
0.202896
0.493935
0.22314
1.09584
0.172541
1.13101
0.224722
0.507896
0.220905
0.438664
0.225629
0.406034
0.235665
0.498274
0.203375
0.352529
0.247078
0.665661
0.179607
0.35726
0.240118
0.455844
0.233287
0.442765
0.197751
0.573662
0.228998
0.648797
0.235331
0.561326
0.217097
1.14463
0.247613
0.680886
0.178327
0.306705
0.26081
0.415611
0.234431
0.38939
0.231058
0.410314
0.181041
0.506395
0.227891
0.334951
0.236183
0.507624
0.21968
0.298583
0.245571
0.324447
0.239713
0.57848
0.184634
0.410909
0.230624
0.481293
0.237751
0.338901
0.227803
0.466278
0.191533
0.329904
0.244246
0.348535
0.237394
0.27964
0.249723
0.420868
0.218582
0.36799
0.240591
0.360227
0.227186
0.318205
0.237464
0.39398
0.224547
0.304697
0.254902
0.338513
0.229363
0.365414
0.210321
0.387873
0.206944
0.450871
0.213741
0.408103
0.194313
0.328043
0.225236
0.289016
0.233035
0.299337
0.24377
0.366958
0.214873
0.300379
0.247134
0.316295
0.211339
0.2949
0.242712
0.281065
0.24459
0.307091
0.239737
1.15905
0.200859
0.385764
0.186847
0.279137
0.251014
0.332668
0.240064
0.389092
0.228512
0.335023
0.223433
0.391448
0.23811
0.289835
0.231552
0.300287
0.238922
0.283859
0.232944
0.281076
0.250308
0.385106
0.229574
0.276241
0.248177
0.434703
0.19574
0.298104
0.235081
0.366685
0.228447
0.355727
0.237353
0.375348
0.21927
0.322336
0.226523
0.284306
0.232309
0.280794
0.24463
0.438503
0.215139
0.531165
0.193758
0.420514
0.195376
0.300361
0.247579
0.304254
0.253632
0.391498
0.223818
0.402805
0.195279
0.295264
0.228732
0.363246
0.223162
0.297944
0.237615
0.341839
0.227538
0.289252
0.248461
0.309289
0.205986
0.362604
0.240468
0.282626
0.233987
0.275218
0.239977
0.35305
0.205704
0.266112
0.22618
0.36933
0.23377
0.297597
0.25425
0.316666
0.225959
0.288378
0.254706
0.287948
0.23677
0.307892
0.241608
0.304281
0.238706
0.284623
0.230694
0.276871
0.240367
0.395013
0.230348
0.264269
0.237044
0.270339
0.2309
0.335683
0.237984
0.515915
0.195422
0.298976
0.245599
0.329783
0.227178
0.298319
0.236085
0.411877
0.214648
0.323232
0.229077
0.295948
0.255184
0.272423
0.228082
0.364793
0.213661
0.569357
0.197478
0.299083
0.241342
0.40586
0.198433
0.27765
0.236884
0.299981
0.240476
0.295273
0.232504
