# vtk DataFile Version 3.0
Tree
ASCII
DATASET POLYDATA
POINTS 20 float
0 0 0.0287941
0.0140818 0.024017 -0.0259948
0.00256221 0.00010514 0.00154436
-0.00291935 -0.0202105 -0.0215645
-0.00308634 -0.00381345 0.0190864
-0.0269867 -0.0274417 0.0120064
-0.000925902 -0.00114404 0.0258818
0.0279792 0.0156412 0.0221424
-0.00290427 0.00103739 0.00928353
-0.0159072 0.0210389 -0.00707897
-0.00243821 -0.00301263 0.021125
0.0249538 -0.0282544 -0.00341975
-0.000277771 -0.000343211 0.0279204
-0.0118752 0.0258239 0.0213217
0.0120408 -0.0152355 0.0161058
0.0257935 -0.02503 0.0242377
0.00500351 -0.00663243 -0.0119061
0.0159796 -0.00654421 -0.0266855
0.00916653 0.0105588 0.0203331
0.0103427 0.0262646 0.00927033
LINES 19 57
2 2 1
2 8 2
2 16 3
2 10 4
2 4 5
2 12 6
2 18 7
2 4 8
2 8 9
2 6 10
2 14 11
2 0 12
2 12 13
2 10 14
2 14 15
2 2 16
2 16 17
2 6 18
2 18 19
CELL_DATA 19
SCALARS radius float
LOOKUP_TABLE default
0.597759
0.831214
0.56515
0.957039
0.532697
1.13603
0.513764
0.898522
0.532643
1.06165
0.565981
1.16687
0.496885
0.683988
0.51763
0.711847
0.564836
0.645957
0.511624
