# vtk DataFile Version 3.0
Tree
ASCII
DATASET POLYDATA
POINTS 20 float
0 0 0.0287941
0.0102224 -0.000465172 0.00635306
0.000150462 0.00251891 0.0221891
-0.0186399 0.0188893 0.0248949
4.51386e-05 0.000755672 0.0268126
-0.0221553 -0.011581 0.0280585
1.35416e-05 0.000226702 0.0281997
0.0223945 -0.0130672 0.0241893
4.06247e-06 6.80105e-05 0.0286158
0.00132201 -0.0254913 0.0271205
-0.00966837 -0.00244412 0.0229378
-0.015617 -9.78687e-05 0.0119061
4.51386e-05 0.000755672 0.0268126
0.00933642 0.0191295 0.0211355
0.00125546 0.00154438 0.0124891
-0.00453621 0.00159625 0.00111995
0.00177102 -0.0103951 0.023898
0.00518495 -0.0153922 0.0130483
-0.0055409 0.0117887 0.0225394
-0.00406982 0.0215935 0.0211207
LINES 19 57
2 14 1
2 12 2
2 18 3
2 6 4
2 10 5
2 8 6
2 6 7
2 0 8
2 16 9
2 4 10
2 10 11
2 4 12
2 12 13
2 2 14
2 14 15
2 8 16
2 16 17
2 2 18
2 18 19
CELL_DATA 19
SCALARS radius float
LOOKUP_TABLE default
0.461334
0.752671
0.501455
0.903052
0.486457
0.947138
0.483756
1.01757
0.479574
0.595218
0.457506
0.807004
0.462865
0.592079
0.478229
0.588667
0.454187
0.602619
0.452653
