# vtk DataFile Version 3.0
Tree
ASCII
DATASET POLYDATA
POINTS 260 float
0 0 0.0287941
0.0140818 0.024017 -0.0259948
0.00339338 0.00365512 0.00695089
-0.00291935 -0.0202105 -0.0215645
0.00101801 0.00109654 0.0222411
-0.0269867 -0.0274417 0.0120064
0.000305404 0.000328961 0.0268282
0.0279792 0.0156412 0.0221424
0.00080423 0.000866263 0.0236173
-0.0159072 0.0210389 -0.00707897
9.16212e-05 9.86882e-05 0.0282043
0.0249538 -0.0282544 -0.00341975
2.74864e-05 2.96065e-05 0.0286172
0.0257935 -0.02503 0.0242377
0.00345101 -0.0042165 -0.00545736
0.0159796 -0.00654421 -0.0266855
7.23807e-05 7.79637e-05 0.0283282
0.0103427 0.0262646 0.00927033
-0.00784321 0.00573292 0.00802425
-0.028734 -0.00327628 -0.0285615
-0.0173831 0.00615009 -0.0107434
-0.0240079 0.014945 -0.0276437
8.24591e-06 8.88194e-06 0.028741
-0.0247609 -0.00894191 0.0286801
0.0146007 0.00827632 0.0202564
0.0276397 0.0155876 0.00737383
0.00341528 0.000663903 0.00223576
-0.00632916 0.00147384 -0.0201737
0.00268077 0.00288754 0.011538
0.0285942 -0.00337969 -0.0134098
0.0128966 -0.015531 0.00402666
0.0174098 -0.023318 -0.0220027
2.47377e-06 2.66458e-06 0.0287782
-0.0269966 -0.0105422 -0.0040437
-0.00270687 -0.0107671 -0.01569
-0.0130811 -0.0139022 -0.0281965
-0.00949052 -0.00803191 0.0105129
-0.010759 -0.0196538 -0.00832203
-0.0168403 -0.0107813 0.00327275
-0.028227 -0.0228294 -0.0131289
7.42132e-07 7.99375e-07 0.0287893
-0.0016719 -0.0183998 0.0149678
-0.00109147 -0.01246 0.0230477
-0.00246633 -0.0287301 0.0201304
0.00303097 0.0155828 0.0164027
-0.00109874 0.0255247 0.00751763
0.00218194 0.00235024 0.0147489
0.0157077 0.0126204 0.00252328
0.0128055 0.0131259 -0.0117684
0.0247926 0.0142086 -0.0222515
-0.000326922 -0.00373744 0.0270668
-0.0194455 -0.0282246 0.0247169
2.22639e-07 2.39812e-07 0.0287927
0.0171294 -0.00652965 0.017837
0.0182674 -0.0207768 -0.0108347
0.0269201 -0.0253667 -0.0193017
6.67918e-08 7.19437e-08 0.0287937
-0.0128489 0.0148428 0.0155917
0.00785986 0.00983852 -0.00134352
0.0117666 0.0241453 -0.00549669
0.0146161 -0.0195274 -0.00560946
0.00868246 -0.0279646 -0.0191572
0.00934354 0.0108247 -0.00447098
0.00366043 0.0127738 -0.0236873
-0.0122488 0.0170492 -0.0039164
-0.0143613 0.0286555 -0.0173601
0.00846169 -0.00775329 0.0143917
0.0205482 -0.00798151 0.00380278
0.00595067 -0.0053977 0.0185355
0.000651152 -0.0233921 0.000787418
0.00289916 0.00891725 0.0232646
0.0128672 0.0244537 0.0219734
-0.0118726 0.0100971 0.00322037
-0.0281281 0.0150816 -0.00326077
0.0139987 -0.00735693 -0.0197727
0.0232235 -0.012107 -0.0262575
0.0148436 -0.0126234 0.0234305
0.0234952 -0.0165202 0.0150983
-0.0203929 0.00255938 -0.0197482
-0.018403 0.00140586 -0.0276308
0.0112081 -0.00497972 -0.0156556
0.0204349 0.00177208 -0.0261534
0.0101992 0.0185489 -0.00627131
0.0128659 0.0286839 -0.0153829
-0.00633097 0.0115421 0.0201096
-0.00792626 0.0242586 0.0128671
-0.020921 0.0138314 -0.00290608
-0.0256105 0.0177373 -0.0112528
0.00770838 -0.00704662 0.0156349
0.015657 -0.0257753 0.0123809
-0.0100191 0.00808959 0.00543016
-0.00823214 0.0266557 -0.000299371
-0.0146353 -0.00995651 0.00544478
-0.0271159 -0.0205638 0.00362122
-0.0144328 0.00566274 -0.00208986
-0.0256109 0.00395032 -0.00657601
-0.0120177 0.023463 -0.0135201
-0.00900926 0.0266912 -0.0228511
0.00580528 0.00699415 0.00247191
-0.00276779 0.0145195 -0.0165126
0.0174962 -0.0221457 0.00243371
0.018989 -0.0282491 0.00472019
2.00376e-08 2.15831e-08 0.028794
-0.0147255 0.00377422 0.0226569
-0.00153027 0.00239194 -0.0142003
-0.000326782 0.00567841 -0.024451
0.0190754 0.011657 0.0203573
0.0207613 0.0182201 0.0173402
-0.0149436 -0.00372129 0.0268357
-0.0250837 -0.00308368 0.0220059
0.00236118 -0.00790359 -0.0101481
0.00754241 -0.0179196 -0.0192285
-0.022433 -0.0167918 -0.0092339
-0.023801 -0.018478 -0.0226491
0.0156602 0.00122143 0.00246018
0.0268244 0.00230905 0.000501101
-0.0185135 0.00942736 -0.0169996
-0.0126812 0.0125975 -0.0228372
0.0134124 -0.0167299 0.00113582
0.0238986 -0.0113655 -0.0134405
-0.00589578 0.00895641 0.0235591
-0.0226678 0.0285233 0.0180767
-0.0106127 -0.0113606 0.00126092
-0.0150596 -0.00939467 -0.019248
-0.0186336 -0.016193 0.00388784
-0.0182171 -0.0231376 0.00144732
0.00889843 0.0105289 -0.00353274
0.0221098 0.0152571 -0.00886142
0.00639085 0.013931 -0.0174295
0.00691697 0.0191341 -0.0232994
-0.0194802 -0.00734746 0.0275111
-0.0284145 -0.0195542 0.0281027
-0.0114283 -0.01842 -0.00544392
-0.0133584 -0.0270949 -0.011733
-0.0120456 0.0132951 -6.25413e-05
-0.00806507 0.0134289 -0.0130739
-0.0153179 0.00580895 -0.00468591
-0.0191059 -0.00384266 -0.0108274
-0.000862107 -0.00984323 0.0242534
0.00961485 -0.0273434 0.0170024
0.00754071 -0.00529266 -0.0100206
0.0132704 -0.00999531 -0.012556
-0.0166417 0.0181794 0.0197957
-0.025106 0.0195334 0.0163838
-0.0105751 0.00869185 0.00476722
-0.022207 0.00897482 0.00248711
-0.00723697 0.018174 0.0183636
-0.00819928 0.0243274 0.0200817
-0.0024688 -0.0186828 0.020683
-0.00827799 -0.0255307 0.0117833
0.00233159 0.00251143 0.0137856
0.00552444 -0.0042855 0.00562671
0.0113612 -0.00778073 0.0240419
0.0270097 -0.00966539 0.0148308
0.00977453 0.0232995 0.0109516
0.0166698 0.0278827 0.00712348
0.0142391 -0.0158686 0.0126559
0.0242193 -0.0225006 0.0077849
0.0135117 -0.00318806 0.0205618
0.0237851 -0.00205812 0.0150478
0.00876952 0.0219434 0.0128058
0.0156013 0.0284951 0.0136834
-0.0130386 0.0155792 0.0225055
-0.0239107 0.0279344 0.0275925
0.0188969 0.014496 -0.0196958
0.0208609 0.0167818 -0.0280997
-0.00911714 0.0136885 0.0173827
-0.0136619 0.0205079 0.00934508
-0.0171335 0.00976093 0.00385928
-0.0283411 0.0156207 0.00398217
-0.00703647 -0.00235374 0.0271851
-0.0129315 -0.00754156 0.0223908
-0.0244954 -0.0192537 -0.0165913
-0.028626 -0.0241389 -0.0240117
0.0194077 -0.0224398 -0.0184351
0.0230749 -0.0245377 -0.0284065
-0.00505527 0.00263106 -0.0189631
-0.00863509 0.00429518 -0.0243835
0.0108565 -0.0119532 0.00879458
0.0114202 -0.0113703 -0.000799371
0.00254599 -0.0162026 0.00436824
0.00136184 -0.0182804 -0.00670747
0.0199491 -0.00843313 -0.0229442
0.0273431 -0.00712902 -0.0255413
-0.022187 0.0144552 0.00436731
-0.025575 0.0215037 0.00556835
0.00414838 -0.014145 -0.0158454
0.00217382 -0.0274452 -0.0281419
0.00440069 -0.0228345 0.0202113
0.00443428 -0.0286914 0.0196359
-0.00399777 0.00255932 -0.0175343
-0.0130183 -0.00378307 -0.027459
0.00891784 0.00974901 0.00854862
0.0107807 0.0170371 0.00657717
-0.00412703 0.00626951 0.0251295
-0.00769591 0.02864 0.0284538
0.0194043 -0.0207626 -0.0149342
0.0235377 -0.0165182 -0.0211162
0.00642165 0.00784746 0.00132728
0.00993225 0.0036272 -0.0122143
-0.0114834 0.00967554 0.00368443
-0.0188934 0.0196935 0.00328622
-0.0238767 -0.0185151 -0.0143841
-0.0187731 -0.0283659 -0.0269246
0.0131697 0.0236697 -0.00954964
0.0185225 0.0281504 -0.0101697
-0.00664262 -0.00562154 0.0159925
-0.0219678 -0.0143738 0.0123096
0.0204753 -0.0153311 -0.00720834
0.0266529 -0.0178649 -0.0120061
-0.0136033 0.0201654 -0.00912649
-0.0225014 0.0232736 -0.0171221
0.0196568 0.0139327 0.0130738
0.0214818 0.0222107 0.00564665
-0.0144871 0.0194336 -0.00481878
-0.0211813 0.0263863 -0.00426272
-0.0181192 -0.00625961 0.0273085
-0.0287392 -0.0123468 0.0201846
-0.0187079 0.0198575 0.0246399
-0.0239673 0.0202687 0.025768
0.0101811 0.00276363 0.00620953
0.016389 0.0071198 0.00135946
0.0142765 -0.0175154 0.00354877
0.0286251 -0.0204416 -0.001328
0.00688125 0.00398474 0.0238052
0.0135786 0.0087395 0.0257694
-0.0226285 0.0110849 -0.0222456
-0.0285004 0.0106176 -0.0266117
-0.00524898 0.00427292 0.0127022
-0.00966584 -0.000817461 0.00154474
0.0128343 0.0165472 -0.0197283
0.0118146 0.0160097 -0.0280026
-0.0193248 -0.00226701 0.0234394
-0.0218993 0.000926027 0.0188459
0.00355393 -0.0199882 0.0199902
0.00850205 -0.0275582 0.0108367
-0.000588597 0.013519 -0.0137316
-0.0023333 0.0173966 -0.022853
0.0122849 0.00698885 0.021321
0.0210264 0.00600432 0.0166468
0.0199713 0.0141484 -0.00654151
0.0257965 0.0153501 -0.00514347
0.0117669 0.0124355 -0.00957917
0.0196612 0.00505056 -0.0195193
-0.0103003 0.0183578 0.0125556
-0.00944716 0.0245193 0.00703253
0.000953878 0.00102745 0.022654
0.00107868 -0.00400664 0.0133571
0.0125277 0.0260743 -0.013996
0.0111372 0.0279598 -0.0204297
-0.0123772 0.0226745 -0.0115173
-0.00971593 0.0279594 -0.0127094
0.0212487 0.0152713 0.0186147
0.025392 0.0189399 0.0167197
0.0192715 -0.000719603 -0.023186
0.0268248 0.000589551 -0.0275531
-0.0111308 0.0142835 0.0160376
-0.0163038 0.0157126 0.0112289
0.00751947 0.0180921 0.0212886
0.00800823 0.0239287 0.017683
LINES 259 777
2 230 1
2 28 2
2 34 3
2 246 4
2 4 5
2 10 6
2 106 7
2 6 8
2 214 9
2 16 10
2 100 11
2 22 12
2 76 13
2 26 14
2 74 15
2 12 16
2 154 17
2 228 18
2 78 19
2 136 20
2 226 21
2 32 22
2 130 23
2 238 24
2 212 25
2 2 26
2 176 27
2 150 28
2 114 29
2 178 30
2 174 31
2 40 32
2 38 33
2 110 34
2 34 35
2 206 36
2 132 37
2 92 38
2 112 39
2 52 40
2 42 41
2 138 42
2 148 43
2 70 44
2 44 45
2 4 46
2 192 47
2 242 48
2 164 49
2 40 50
2 50 51
2 56 52
2 158 53
2 60 54
2 54 55
2 102 56
2 256 57
2 198 58
2 82 59
2 118 60
2 60 61
2 126 62
2 128 63
2 134 64
2 96 65
2 88 66
2 66 67
2 10 68
2 180 69
2 16 70
2 258 71
2 200 72
2 86 73
2 80 74
2 182 75
2 152 76
2 76 77
2 20 78
2 78 79
2 140 80
2 254 81
2 58 82
2 248 83
2 120 84
2 146 85
2 72 86
2 86 87
2 68 88
2 156 89
2 18 90
2 90 91
2 36 92
2 124 93
2 18 94
2 94 95
2 250 96
2 96 97
2 2 98
2 236 99
2 222 100
2 100 101
2 0 102
2 102 103
2 26 104
2 104 105
2 24 106
2 252 107
2 170 108
2 232 109
2 14 110
2 186 111
2 38 112
2 172 113
2 220 114
2 114 115
2 20 116
2 116 117
2 30 118
2 208 119
2 194 120
2 142 121
2 36 122
2 122 123
2 92 124
2 124 125
2 58 126
2 240 127
2 62 128
2 128 129
2 216 130
2 130 131
2 122 132
2 132 133
2 72 134
2 134 135
2 94 136
2 136 137
2 50 138
2 188 139
2 14 140
2 140 141
2 162 142
2 142 143
2 90 144
2 168 145
2 84 146
2 146 147
2 42 148
2 148 149
2 46 150
2 150 151
2 12 152
2 152 153
2 160 154
2 154 155
2 88 156
2 156 157
2 52 158
2 158 159
2 44 160
2 160 161
2 120 162
2 218 163
2 48 164
2 164 165
2 84 166
2 244 167
2 144 168
2 184 169
2 22 170
2 170 171
2 202 172
2 172 173
2 196 174
2 174 175
2 190 176
2 176 177
2 66 178
2 178 179
2 68 180
2 180 181
2 74 182
2 182 183
2 168 184
2 184 185
2 110 186
2 186 187
2 234 188
2 188 189
2 104 190
2 190 191
2 46 192
2 192 193
2 56 194
2 194 195
2 54 196
2 196 197
2 98 198
2 198 199
2 144 200
2 200 201
2 112 202
2 202 203
2 82 204
2 204 205
2 32 206
2 206 207
2 118 208
2 208 209
2 64 210
2 210 211
2 24 212
2 212 213
2 64 214
2 214 215
2 108 216
2 216 217
2 162 218
2 218 219
2 28 220
2 220 221
2 30 222
2 222 223
2 6 224
2 224 225
2 116 226
2 226 227
2 8 228
2 228 229
2 48 230
2 230 231
2 108 232
2 232 233
2 138 234
2 234 235
2 98 236
2 236 237
2 224 238
2 238 239
2 126 240
2 240 241
2 62 242
2 242 243
2 166 244
2 244 245
2 8 246
2 246 247
2 204 248
2 248 249
2 210 250
2 250 251
2 106 252
2 252 253
2 80 254
2 254 255
2 166 256
2 256 257
2 70 258
2 258 259
CELL_DATA 259
SCALARS radius float
LOOKUP_TABLE default
0.281281
0.828156
0.267703
0.879624
0.288457
1.05682
0.250347
1.02589
0.200904
1.13799
0.269409
1.17474
0.270056
0.590656
0.250696
1.16182
0.219843
0.723699
0.30652
0.484824
0.283842
1.19419
0.214404
0.433205
0.263957
0.65399
0.200876
0.85249
0.292581
0.585862
0.248757
1.24244
0.245769
0.355765
0.295655
0.58501
0.216195
0.479663
0.258696
1.2656
0.221349
0.349371
0.244084
0.406365
0.252501
0.86916
0.245271
0.436767
0.262814
0.478064
0.270966
1.2714
0.217133
0.447642
0.282918
1.30371
0.172413
0.619485
0.219591
0.482431
0.282646
0.518239
0.261438
0.478443
0.268379
0.608698
0.240431
0.664471
0.249489
0.455589
0.245072
0.544129
0.249251
0.397436
0.275657
0.329462
0.252332
0.365114
0.27087
0.475448
0.251957
0.40825
0.241635
0.426414
0.244603
0.328786
0.271699
0.636734
0.245233
0.617732
0.260599
0.520963
0.257199
0.523307
0.242801
0.357166
0.297128
0.660593
0.226799
0.319992
0.236402
1.30596
0.225563
0.419167
0.261752
0.349555
0.219525
0.417975
0.230172
0.443889
0.234944
0.457112
0.264594
0.344489
0.251117
0.402664
0.262863
0.53154
0.266274
0.523945
0.266159
0.388906
0.286087
0.314244
0.241113
0.553632
0.228076
0.334783
0.269863
0.312536
0.274448
0.328367
0.293572
0.500748
0.252205
0.50527
0.246808
0.447082
0.24947
0.491321
0.223252
0.324739
0.248743
0.601869
0.208439
0.299413
0.230252
0.316815
0.25842
0.856883
0.212734
0.375383
0.257805
0.319547
0.280221
0.319521
0.261455
0.303572
0.260801
0.370856
0.263888
0.404732
0.270076
0.345845
0.285263
0.370096
0.234432
0.351972
0.250804
0.434169
0.206617
0.355169
0.297304
0.360408
0.315556
0.301617
0.268391
0.595928
0.219284
0.327813
0.270068
0.360937
0.296534
0.325691
0.265766
0.348796
0.308866
0.304875
0.233994
0.381934
0.304651
0.301591
0.233168
0.543705
0.256597
0.406266
0.272523
0.631432
0.241135
0.558727
0.23703
0.427633
0.322039
0.385868
0.257023
0.598983
0.24492
0.335897
0.266929
0.435239
0.278539
0.337919
0.272325
0.300262
0.266661
0.364375
0.261343
0.317655
0.231167
0.372179
0.220163
0.370622
0.262768
0.465149
0.202573
0.3612
0.289472
0.730913
0.22538
0.347475
0.270074
0.291006
0.231766
0.360164
0.263914
0.331761
0.291813
0.451972
0.222601
0.312468
0.265163
0.466717
0.263725
0.315552
0.264652
0.88332
0.204993
0.343342
0.297633
0.393302
0.248125
0.300079
0.254285
0.354893
0.306181
0.268109
0.241855
0.301688
0.23355
