# vtk DataFile Version 3.0
Tree
ASCII
DATASET POLYDATA
POINTS 260 float
0 0 0.0287941
0.000140911 0.0048008 0.0122984
-0.0160657 -0.000970573 -0.00629426
-0.028734 -0.00327628 -0.0285615
0.0078926 0.0135752 -0.00715455
0.0215077 0.0231489 -0.0138067
0.0110082 0.0100086 0.0060624
0.0278788 0.0108654 0.0178169
0.0115351 -0.00668739 -0.000514238
0.0255205 -0.0158546 0.00430373
0.0165365 -0.0135441 -0.0053747
0.0174098 -0.023318 -0.0220027
-0.010246 -0.00824542 0.0140811
-0.018232 -0.0283387 0.0163487
-0.0225112 -0.00764441 -0.0135521
-0.028227 -0.0228294 -0.0131289
-0.00276668 0.00516802 0.0193056
-0.00109874 0.0255247 0.00751763
0.0210148 -0.0126891 0.00577022
0.0171294 -0.00652965 0.017837
-0.00447285 -0.00560632 -0.00727807
-0.00226163 -0.019791 -0.0277715
0.00677443 0.0137377 0.0220855
0.0137349 0.0139278 0.0280587
-0.00309495 -0.0254745 0.023762
0.00168107 -0.0285527 0.027425
-0.00593203 0.012814 0.0179486
-0.0128489 0.0148428 0.0155917
0.00155213 0.00513206 -0.0218385
0.00366043 0.0127738 -0.0236873
-0.017651 0.0051891 -0.0117152
-0.0143613 0.0286555 -0.0173601
-0.00560881 7.09102e-05 0.0173203
-0.0180797 -0.00385999 0.0283206
0.00161016 -0.00601713 -0.00470781
0.000651152 -0.0233921 0.000787418
-0.0164305 0.0116278 -0.0172545
-0.0161118 0.00807056 -0.0266599
-0.0101605 -0.0149242 0.0184374
-0.0234267 -0.0227237 0.0265271
-0.0225068 0.0147056 0.0027485
-0.0281281 0.0150816 -0.00326077
-0.019825 -0.00546825 -0.0144335
-0.0126967 -0.0168507 -0.0233901
0.00715969 0.0196835 0.0138663
0.0148988 0.0248694 0.00521801
0.0186883 -0.0162694 -0.0165428
0.0232235 -0.012107 -0.0262575
-0.00264794 -0.00572956 -0.00650699
0.00377153 -0.0161516 -0.0142187
0.0189241 -0.014833 -0.00185196
0.0249542 -0.0243996 -0.00170607
0.00539331 0.00161406 -0.0195522
0.0204349 0.00177208 -0.0261534
0.013642 0.0208692 -0.0115872
0.0128659 0.0286839 -0.0153829
0.0166406 0.0216006 -0.0138287
0.0198912 0.0216971 -0.0233174
0.00578383 -0.0262473 0.0197512
0.015657 -0.0257753 0.0123809
-0.0130307 0.0193274 0.00466041
-0.00823214 0.0266557 -0.000299371
-0.0151102 -0.00684181 0.00385532
-0.0271159 -0.0205638 0.00362122
-0.0165413 0.000877329 -0.00792054
-0.0256109 0.00395032 -0.00657601
-0.00860142 0.0134975 0.0128642
-0.0113087 0.00513444 0.00725875
-0.00673285 0.0130191 0.0164233
-0.00791117 0.0252656 0.0185335
0.00151658 0.00850957 -0.0215921
-0.00276779 0.0145195 -0.0165126
0.0111022 -0.0256492 0.0183222
0.0247307 -0.0228855 0.0237583
0.0203895 -0.0208855 2.32558e-05
0.018989 -0.0282491 0.00472019
0.0106119 0.0144166 0.0230339
0.0207613 0.0182201 0.0173402
-0.0160501 -0.00238474 0.0230324
-0.0250837 -0.00308368 0.0220059
0.0159911 -0.0221243 0.0214454
0.0168809 -0.0154291 0.0248169
-0.0192275 -0.0118428 -0.0188834
-0.023801 -0.018478 -0.0226491
0.0104423 -0.000608621 -0.00250633
0.0268244 0.00230905 0.000501101
-0.00928189 0.0184962 0.0172245
-0.0226678 0.0285233 0.0180767
-0.019822 -0.0157957 0.00310617
-0.0182171 -0.0231376 0.00144732
0.0088615 0.00818533 -0.00538823
0.0221098 0.0152571 -0.00886142
0.00551138 -0.0160382 -0.00815475
0.0089418 -0.0192991 -0.00586899
0.0079232 0.0178047 0.0179438
0.0137966 0.0245259 0.0177466
-0.0159135 -0.0234448 -0.00550236
-0.0133584 -0.0270949 -0.011733
0.00780479 -0.02602 0.0192081
0.0109054 -0.0169042 0.0064207
0.0177016 -0.0049377 0.00961912
0.0158091 0.00151365 0.00660243
-0.0179961 0.0219953 0.0172618
-0.025106 0.0195334 0.0163838
-0.0183032 0.0019919 -0.0125307
-0.0278721 0.00158025 -0.0191506
-0.0112866 0.0106848 0.00444613
-0.0118572 0.0112714 0.00203956
-0.0146556 0.0231502 -0.0196314
-0.0130476 0.028454 -0.0255925
-0.00804083 -0.0180893 0.0200348
-0.00827799 -0.0255307 0.0117833
-0.017651 0.0051891 -0.0117152
-0.0172447 0.0201738 -0.00925968
0.0154859 -0.00310453 0.00824567
0.00552444 -0.0042855 0.00562671
0.0200209 -0.0103637 0.00692489
0.0270097 -0.00966539 0.0148308
-0.000830004 0.0015504 0.0259475
0.00327908 -0.00362528 0.0196336
0.0117268 0.0189708 -0.00917062
0.0143359 0.0255439 -0.00540765
0.02268 -0.0149174 0.00565633
0.0242193 -0.0225006 0.0077849
0.00122297 -0.0126734 -0.00888639
-5.93359e-05 -0.0236661 -0.0184417
0.00504047 -0.00200844 0.0206964
0.0237851 -0.00205812 0.0150478
-0.0200855 0.0245893 0.0189281
-0.0239107 0.0279344 0.0275925
0.0133342 0.00589895 -0.0235298
0.0208609 0.0167818 -0.0280997
0.00517508 -0.0185439 -0.0151036
0.0112739 -0.0211544 -0.0189116
0.00505332 -0.0132191 -0.0142939
0.0103861 -0.00791316 -0.0210934
-0.00851718 0.0168531 0.0169841
-0.01085 0.0184184 0.0234071
-0.0113953 0.0109651 0.00764255
-0.0187764 0.00565516 0.00623248
0.0176174 -0.0140327 -0.0117897
0.0176478 -0.00866346 -0.0168942
-0.0224492 -0.0213621 0.00567338
-0.0224302 -0.0266649 0.00896106
-0.0232416 -0.017479 -0.0218231
-0.028626 -0.0241389 -0.0240117
0.0050507 -0.00501414 0.0201181
0.00759328 -0.0104333 0.0201493
0.0196097 -0.0202762 -0.021175
0.0230749 -0.0245377 -0.0284065
0.0112072 -0.00486376 -0.00111187
0.0194914 -0.00489973 0.000241136
-0.0173181 0.00389557 -0.0105768
-0.00863509 0.00429518 -0.0243835
0.0229257 -0.0120451 -0.0229483
0.0273431 -0.00712902 -0.0255413
-0.0117019 0.0175784 0.00712155
-0.025575 0.0215037 0.00556835
-0.0171026 -0.0174445 0.0198766
-0.0235826 -0.0172401 0.0166434
0.00334161 -0.0211731 -0.0178302
0.00217382 -0.0274452 -0.0281419
-0.0172849 0.00712072 -0.013377
-0.0227263 0.00581343 -0.0240128
-0.0095246 -0.0158738 0.0189166
-0.0101891 -0.0160731 0.0276386
-0.0133356 0.00187342 -0.019722
-0.0130183 -0.00378307 -0.027459
-0.0184085 -0.0131095 0.00333091
-0.0277921 -0.0142514 -0.00399178
0.010031 0.0201871 0.00974976
0.0107807 0.0170371 0.00657717
-0.00868976 0.0217441 0.01915
-0.00769591 0.02864 0.0284538
0.0198673 0.0168925 0.0177829
0.026268 0.016739 0.014041
0.0115351 -0.00668739 -0.000514238
0.0115979 -0.0158118 -0.00108582
0.00504354 -0.00291015 0.0205229
0.00772708 0.00228391 0.0120475
0.00304605 -0.0223616 -0.0230596
0.00328702 -0.0200418 -0.0276679
0.00817281 0.00305282 -0.0195988
0.00993225 0.0036272 -0.0122143
-0.0151799 0.00231558 -0.0177824
-0.0188285 0.00113182 -0.0235048
-0.02089 -0.0165796 -0.0212733
-0.0187731 -0.0283659 -0.0269246
0.00817953 0.00616874 -0.0170098
0.00668873 0.0136888 -0.0166818
0.0141157 0.0239985 -0.0124136
0.0185225 0.0281504 -0.0101697
-0.0117053 -0.00782434 0.0110134
-0.0219678 -0.0143738 0.0123096
0.0172931 -0.0138861 -0.00986522
0.0266529 -0.0178649 -0.0120061
-0.00969638 0.0211847 0.0022335
-0.00523539 0.0196791 0.000244124
-0.0165172 0.0182129 -0.018258
-0.0225014 0.0232736 -0.0171221
0.0147949 0.022252 0.00715073
0.0214818 0.0222107 0.00564665
-0.0167304 0.0190678 0.00289496
-0.0211813 0.0263863 -0.00426272
-0.0209997 -0.0166593 0.0187881
-0.0287392 -0.0123468 0.0201846
-0.0220905 0.0241824 0.0229227
-0.0239673 0.0202687 0.025768
0.00933575 0.00554715 -0.00452366
0.016389 0.0071198 0.00135946
0.0207951 -0.0177366 -0.00112228
0.0286251 -0.0204416 -0.001328
0.0118705 0.0134898 0.0247736
0.0135786 0.0087395 0.0257694
0.00734248 -0.0212954 -0.0179521
0.00768825 -0.026133 -0.0220128
-0.0136194 -0.0145458 -0.0208596
-0.00666255 -0.0157732 -0.0207906
-0.0226018 0.00757693 -0.021337
-0.0285004 0.0106176 -0.0266117
-0.0154733 -0.00461074 -1.52326e-06
-0.00966584 -0.000817461 0.00154474
0.000255819 0.0106446 -0.0178137
0.000686175 0.0109833 -0.0124518
0.0147151 0.0113418 -0.025879
0.0118146 0.0160097 -0.0280026
0.0139424 0.0145084 -0.0268371
0.0147894 0.0249579 -0.0286275
-0.019856 -0.00162547 0.0216138
-0.0218993 0.000926027 0.0188459
0.00874417 -0.0242629 0.0137952
0.00850205 -0.0275582 0.0108367
0.00155644 0.0109051 -0.0223343
-0.0023333 0.0173966 -0.022853
0.0153093 0.0141054 0.0203019
0.0210264 0.00600432 0.0166468
0.0208761 0.0138111 -0.00657051
0.0257965 0.0153501 -0.00514347
0.0117858 0.00504511 -0.0223505
0.0196612 0.00505056 -0.0195193
-0.0121006 0.0181031 0.00638321
-0.00944716 0.0245193 0.00703253
-0.00475617 0.00160004 0.0179159
0.00107868 -0.00400664 0.0133571
-0.000581003 0.00108528 0.0268015
-0.00489602 0.00308762 0.0276069
0.0129818 0.0262322 -0.0153707
0.0111372 0.0279598 -0.0204297
-0.0138846 0.0253099 -0.0180491
-0.00971593 0.0279594 -0.0127094
0.0199519 0.00276157 -0.0257058
0.0268248 0.000589551 -0.0275531
-0.0173692 0.00703773 0.0048925
-0.0200772 0.00604154 0.000238226
0.0150277 0.0039712 -0.0212632
0.019754 -0.00263617 -0.0200441
-0.011318 0.0107243 0.00254955
-0.0104105 0.00983602 -0.00445967
-0.0188831 0.0109539 -0.0102184
-0.0223994 0.0129338 -0.00847412
LINES 259 777
2 6 1
2 220 2
2 14 3
2 90 4
2 56 5
2 4 6
2 6 7
2 34 8
2 122 9
2 176 10
2 148 11
2 32 12
2 24 13
2 42 14
2 14 15
2 118 16
2 44 17
2 50 18
2 100 19
2 2 20
2 28 21
2 26 22
2 212 23
2 110 24
2 58 25
2 16 26
2 40 27
2 52 28
2 232 29
2 152 30
2 248 31
2 242 32
2 78 33
2 48 34
2 34 35
2 162 36
2 36 37
2 12 38
2 158 39
2 202 40
2 40 41
2 104 42
2 216 43
2 94 44
2 200 45
2 140 46
2 154 47
2 20 48
2 92 49
2 10 50
2 74 51
2 20 52
2 250 53
2 120 54
2 246 55
2 54 56
2 56 57
2 24 58
2 72 59
2 240 60
2 196 61
2 192 62
2 142 63
2 2 64
2 64 65
2 68 66
2 106 67
2 26 68
2 172 69
2 28 70
2 222 71
2 98 72
2 80 73
2 210 74
2 74 75
2 22 76
2 174 77
2 32 78
2 228 79
2 72 80
2 80 81
2 42 82
2 144 83
2 150 84
2 84 85
2 136 86
2 128 87
2 168 88
2 96 89
2 208 90
2 236 91
2 124 92
2 92 93
2 22 94
2 94 95
2 88 96
2 96 97
2 58 98
2 230 99
2 116 100
2 114 101
2 86 102
2 102 103
2 30 104
2 104 105
2 138 106
2 256 107
2 198 108
2 108 109
2 164 110
2 110 111
2 30 112
2 258 113
2 100 114
2 114 115
2 18 116
2 116 117
2 244 118
2 146 119
2 4 120
2 120 121
2 18 122
2 122 123
2 48 124
2 160 125
2 118 126
2 126 127
2 102 128
2 206 129
2 238 130
2 224 131
2 134 132
2 214 133
2 124 134
2 134 135
2 68 136
2 136 137
2 66 138
2 252 139
2 194 140
2 140 141
2 88 142
2 142 143
2 186 144
2 144 145
2 178 146
2 146 147
2 46 148
2 148 149
2 8 150
2 150 151
2 64 152
2 166 153
2 46 154
2 154 155
2 66 156
2 156 157
2 38 158
2 204 159
2 132 160
2 180 161
2 112 162
2 218 163
2 38 164
2 164 165
2 184 166
2 166 167
2 62 168
2 168 169
2 44 170
2 170 171
2 86 172
2 172 173
2 234 174
2 174 175
2 8 176
2 176 177
2 126 178
2 178 179
2 160 180
2 180 181
2 52 182
2 188 183
2 152 184
2 184 185
2 82 186
2 186 187
2 182 188
2 188 189
2 54 190
2 190 191
2 12 192
2 192 193
2 10 194
2 194 195
2 60 196
2 196 197
2 36 198
2 198 199
2 170 200
2 200 201
2 60 202
2 202 203
2 158 204
2 204 205
2 128 206
2 206 207
2 84 208
2 208 209
2 50 210
2 210 211
2 76 212
2 212 213
2 132 214
2 214 215
2 82 216
2 216 217
2 162 218
2 218 219
2 62 220
2 220 221
2 70 222
2 222 223
2 130 224
2 226 225
2 224 226
2 226 227
2 78 228
2 228 229
2 98 230
2 230 231
2 70 232
2 232 233
2 76 234
2 234 235
2 90 236
2 236 237
2 182 238
2 254 239
2 156 240
2 240 241
2 16 242
2 242 243
2 0 244
2 244 245
2 190 246
2 246 247
2 108 248
2 248 249
2 130 250
2 250 251
2 138 252
2 252 253
2 238 254
2 254 255
2 106 256
2 256 257
2 112 258
2 258 259
CELL_DATA 259
SCALARS radius float
LOOKUP_TABLE default
0.330845
1.16253
0.291311
0.626284
0.281316
0.440899
0.367155
0.895175
0.23276
0.711855
0.26093
1.23407
0.270131
0.365394
0.288703
1.33042
0.268865
0.541627
0.307622
1.05992
0.334724
0.543755
0.206871
0.527358
0.250348
0.755311
0.309015
0.481718
0.226782
0.686556
0.247826
1.242
0.217242
0.90318
0.268778
0.456924
0.246988
0.594157
0.245581
0.361862
0.26147
0.538385
0.24461
0.422378
0.251103
0.473407
0.270027
0.96179
0.248739
0.603789
0.263567
0.670219
0.203782
0.518144
0.266674
0.389731
0.333022
0.502587
0.256262
0.447673
0.239433
1.18376
0.23443
0.724544
0.220125
0.560588
0.230362
0.646433
0.190031
0.420364
0.269271
0.411637
0.304675
0.34969
0.290249
0.416409
0.201627
0.3317
0.2427
0.375442
0.290988
0.475146
0.195926
0.691883
0.282204
0.441018
0.225952
0.405083
0.267047
0.664015
0.264316
0.306555
0.237633
0.445751
0.23642
0.338341
0.27002
0.480964
0.301221
0.457477
0.289335
0.397031
0.235809
0.554228
0.242076
0.322411
0.155758
0.400306
0.28142
0.541271
0.228412
0.535283
0.257294
0.405411
0.348733
0.495461
0.295806
1.33897
0.171882
0.542818
0.275163
0.334015
0.291048
0.534778
0.240758
0.357512
0.263163
0.367104
0.272796
0.491744
0.29138
0.474353
0.251428
0.498839
0.259114
0.454618
0.201512
0.392441
0.211022
0.495555
0.249861
0.302714
0.245828
0.334093
0.309926
0.249193
0.218252
0.37233
0.323486
0.700457
0.231869
0.717707
0.246237
0.379096
0.326459
0.487321
0.253647
0.346716
0.206153
0.409424
0.313404
0.50228
0.216816
0.551863
0.211743
0.323122
0.265931
0.430693
0.237644
0.382399
0.231523
0.285173
0.253699
0.321971
0.293104
0.720268
0.234777
0.301731
0.228916
0.379546
0.288018
0.574157
0.245358
0.35851
0.231103
0.408338
0.313446
0.321474
0.26425
0.430728
0.294269
1.18633
0.221325
0.519997
0.266416
0.294707
0.22811
0.431477
0.252938
0.351712
0.302478
0.400256
0.255807
0.299511
0.262592
0.336012
0.260297
0.675866
0.251756
0.394137
0.264315
0.271261
0.223117
0.336502
0.281089
0.339655
0.290631
0.315221
0.276457
1.16444
0.198245
0.341772
0.273228
0.425349
0.242033
0.373768
0.336309
0.297169
0.228605
0.346244
0.242035
0.325098
0.283127
0.373833
0.266213
0.361206
0.306028
0.538381
0.247944
0.463246
0.213212
1.24375
0.200795
1.33983
0.166763
0.378976
0.328549
0.347214
0.298654
0.347476
0.322339
0.299724
0.259766
0.333649
0.279777
0.277155
0.259679
0.298719
0.212699
