# vtk DataFile Version 3.0
Tree
ASCII
DATASET POLYDATA
POINTS 600 float
-0.004 0.02 0.0265
0.0065 0.01 0.026302
0.00461 0.0117065 0.0248517
0.00725 0.009063 0.02275
0.00651684 0.00919274 0.0236607
0.008403 0.00575 0.023
0.002251 0.0141968 0.0248625
0.004365 0.0135 0.02175
0.00798227 0.00671168 0.0225814
0.009056 0.00525 0.02075
0.00810849 0.00642317 0.022707
0.00825 0.001955 0.02325
0.00673679 0.00915382 0.0233875
0.00752 0.0095 0.0185
-0.00021699 0.0164905 0.0249999
0.00025 0.016072 0.02175
0.00362524 0.0136039 0.0222794
0.004366 0.0125 0.01775
0.00841472 0.00318742 0.0224062
0.009 0.00125 0.020857
0.00849278 0.00625239 0.0212705
0.009558 0.00625 0.01675
-0.00165453 0.0178241 0.0255699
-0.00225 0.017068 0.022
0.000121553 0.0160064 0.0222925
0.0005 0.014557 0.0175
0.00741777 0.00917922 0.019084
0.00805 0.00875 0.015
-0.000373534 0.0157967 0.0203604
-0.001971 0.0165 0.0195
0.000660746 0.0146169 0.0180842
0.002322 0.013 0.0155
0.00431722 0.0124045 0.0184418
0.00525 0.010582 0.01375
0.00859651 0.00171308 0.0216513
0.00825 -0.0025 0.020887
0.00899938 0.00551641 0.0194171
0.010057 0.001 0.01675
0.00942436 0.00600444 0.0172285
0.01 0.00633 0.0135
0.00828742 -0.000329282 0.0219488
0.007057 -0.00475 0.02525
-0.00292181 0.0173682 0.023008
-0.0055 0.01706 0.0205
-0.00124256 0.0159451 0.0196125
-0.0035 0.0155 0.016678
0.00094678 0.013989 0.0167605
-0.0005 0.01325 0.013613
0.0008086 0.013511 0.0152783
0.00275 0.012 0.012244
-0.00329636 0.0193472 0.026221
-0.008582 0.01475 0.02325
0.00837548 -0.00139293 0.0210943
0.00901 -0.0025 0.0185
0.00994396 0.00279525 0.0169735
0.010862 0.00225 0.0145
0.00949968 0.00669342 0.0142031
0.008871 0.008 0.01175
0.00523151 0.011023 0.0143414
0.00625 0.010074 0.0105
-0.00773401 0.0148733 0.023823
-0.010084 0.01125 0.02275
0.00830772 -0.00199075 0.0209824
0.00757 -0.0055 0.02025
-0.00488873 0.0167512 0.0206632
-0.007 0.015517 0.0175
0.0100173 0.0017792 0.0165457
0.01025 -0.001 0.014349
0.00968714 0.00598508 0.0151256
0.01107 0.00375 0.0115
0.0052826 0.0107829 0.0119094
0.00425 0.01125 0.010046
0.00736477 -0.00393373 0.0235636
0.00675 -0.006887 0.023
-0.00872248 0.0137732 0.0227051
-0.00925 0.01405 0.02075
0.00818451 -0.00363552 0.0199015
0.0085 -0.004857 0.01775
-0.00340762 0.0153817 0.0171472
-0.00575 0.014569 0.015
-0.000322302 0.0134052 0.0141383
-0.00325 0.013557 0.01225
0.00134344 0.0127601 0.0128994
0.0005 0.012556 0.01025
0.00950288 0.00730284 0.0121575
0.01005 0.00775 0.009
-0.00989695 0.0117611 0.022776
-0.01175 0.00875 0.02292
-0.0109116 0.00967445 0.0221848
-0.011403 0.00775 0.0205
-0.00914877 0.0135129 0.0216585
-0.01075 0.01138 0.019
-0.00959921 0.0129974 0.0197161
-0.009385 0.0135 0.017
0.00987693 -0.000740921 0.01527
0.00925 -0.004045 0.0145
0.0100945 0.000411459 0.0153266
0.011 -0.00025 0.011756
0.0106308 0.00488523 0.0120302
0.011082 0.00525 0.00925
0.00603663 0.0104252 0.0109076
0.00825 0.01 0.008277
0.00689847 -0.00578165 0.0236024
0.005571 -0.00975 0.02525
-0.0111967 0.00843043 0.0216734
-0.012 0.0045 0.021781
0.00781116 -0.00493412 0.0199323
0.007054 -0.00825 0.01925
0.00756248 -0.00637838 0.0189475
0.007572 -0.00725 0.017
-0.00917002 0.0132699 0.0175337
-0.00825 0.01354 0.01425
-0.00481278 0.0147767 0.0154333
-0.00625 0.013556 0.0115
-0.0016347 0.013345 0.0123164
-0.0025 0.01306 0.00925
0.00126013 0.0126522 0.0112512
0.002857 0.0125 0.00775
0.00662758 0.0106367 0.00918212
0.00625 0.011545 0.007
0.00632831 -0.00800843 0.0235492
0.006 -0.010333 0.022
-0.0117487 0.00609121 0.0210293
-0.01225 0.004568 0.01925
-0.0104302 0.0117423 0.0191023
-0.012 0.009 0.017531
-0.00957643 0.0129725 0.0180128
-0.011 0.011827 0.0155
0.00938874 -0.00332509 0.0141864
0.009029 -0.00525 0.0125
0.0104278 -0.000623256 0.0127626
0.01025 -0.002528 0.01025
0.0104677 -0.000945281 0.0114874
0.011056 0.00075 0.0085
0.00122054 0.012729 0.00929058
-0.00025 0.013057 0.00725
0.0100977 0.00729114 0.009493
0.011002 0.00675 0.00625
0.00579143 -0.00940405 0.0240836
0.00506 -0.0115 0.024
-0.0119319 0.00484381 0.0213331
-0.012573 0.00025 0.02175
0.00709449 -0.00787493 0.0190741
0.006072 -0.01025 0.01875
-0.0114947 0.00716725 0.0213256
-0.01275 0.0065 0.01688
0.00762859 -0.00695571 0.0173316
0.008 -0.007327 0.0145
-0.00910801 0.0130529 0.0150735
-0.01 0.012186 0.0125
-0.00569507 0.0138492 0.011884
-0.0055 0.013557 0.0095
0.0108484 0.00471397 0.0103529
0.011057 0.00275 0.007
0.0103762 0.00752645 0.0073372
0.010059 0.00875 0.0055
0.00676621 0.0109328 0.00800745
0.008346 0.011 0.005
0.00589506 -0.0100696 0.0222857
0.00525 -0.012049 0.02125
-0.0123848 0.00287503 0.0207407
-0.013 0.00175 0.01886
0.00761161 -0.007044 0.0172321
0.0065 -0.009827 0.01625
-0.0115821 0.00997455 0.0173808
-0.01275 0.008563 0.01475
-0.0105967 0.0119692 0.0159362
-0.012 0.010371 0.01275
-0.00915184 0.0127919 0.0131053
-0.0085 0.012864 0.01025
0.010548 -0.000763735 0.00978135
0.01025 -0.00175 0.007955
-0.00257388 0.0133132 0.00970655
-0.004 0.013557 0.0065
-0.00279955 0.0134595 0.00743262
-0.00175 0.013557 0.00525
0.00693082 0.0113877 0.0063117
0.006 0.0125 0.004529
0.00184151 0.0127155 0.00816894
0.0025 0.013074 0.00425
-0.0128273 0.000740012 0.0215333
-0.01375 -0.00175 0.022418
-0.0127238 0.00124367 0.0209712
-0.013194 -0.001 0.0195
0.00620127 -0.00971997 0.0183896
0.005073 -0.01175 0.017
-0.0124809 0.0058569 0.0183418
-0.013582 0.00325 0.01575
0.00676432 -0.00883224 0.0160129
0.005856 -0.01025 0.014
0.00754735 -0.00750692 0.0150026
0.006914 -0.0085 0.01225
0.00902478 -0.00478104 0.0125446
0.0085 -0.006325 0.01025
0.0102036 -0.00210671 0.0105371
0.00925 -0.00438 0.0085
-0.00587948 0.0136631 0.0104144
-0.0075 0.01325 0.007347
0.0104608 -0.000927024 0.00868885
0.0105 -2.8e-05 0.0055
0.0108336 0.00381559 0.00757116
0.010557 0.00375 0.00425
0.00172928 0.0130945 0.00529406
0.0005 0.013557 0.0035
0.0102379 0.00785311 0.00623003
0.01 0.0075 0.002972
0.00522611 -0.0110187 0.0239756
0.004 -0.0145 0.023569
-0.0130699 -0.00062304 0.0204862
-0.013557 -0.0035 0.0205
-0.0128897 0.00182876 0.0193347
-0.01375 -0.0005 0.017549
0.00590965 -0.0101362 0.0150851
0.00475 -0.011869 0.015
-0.0131853 0.00520131 0.0165041
-0.014053 0.00575 0.014
-0.0126563 0.00882318 0.0149619
-0.01375 0.007879 0.0125
-0.0114109 0.0110249 0.0131396
-0.0115 0.01088 0.0105
-0.00925074 0.012607 0.0109721
-0.01025 0.012049 0.00875
0.0102694 -0.0014841 0.00818427
0.0095 -0.003319 0.0065
-0.00365881 0.0135151 0.00665603
-0.00525 0.013557 0.00475
0.0105058 0.00321099 0.00503277
0.010058 0.00175 0.00325
0.00982777 0.00827124 0.00414305
0.009045 0.00975 0.0025
0.00742761 0.0113052 0.0053539
0.00775 0.011546 0.002
-0.0134862 -0.00283922 0.0209411
-0.014 -0.00525 0.022095
0.00531738 -0.0115483 0.0215554
0.00375 -0.014552 0.02025
-0.0133556 -0.00176648 0.0202973
-0.01407 -0.00325 0.018
-0.0135459 0.000641504 0.0177072
-0.01425 0.00025 0.015563
-0.0135514 0.00387906 0.0157943
-0.014582 0.00175 0.01375
0.00569781 -0.0103394 0.0143952
0.0045 -0.011368 0.01225
0.00537063 -0.0104212 0.0128597
0.005556 -0.00975 0.01075
0.00828991 -0.00624642 0.01088
0.007 -0.00825 0.009222
0.00790105 -0.00680384 0.00995913
0.008 -0.006364 0.0075
-0.00960038 0.0124071 0.00949828
-0.00925 0.012574 0.006
0.0101343 -0.000952649 0.00642554
0.00925 -0.002046 0.00425
-0.00237982 0.013518 0.00549305
-0.0025 0.013557 0.003
0.0103141 0.00289114 0.00409183
0.01 0.003744 0.00175
0.00708344 0.0118568 0.00320156
0.00583 0.013 0.0015
0.00211528 0.0131807 0.00446406
0.003 0.01375 0.001379
0.00411236 -0.0137618 0.0241698
0.003 -0.015842 0.02525
-0.0138107 -0.00449569 0.0211168
-0.014058 -0.006 0.02025
0.00397156 -0.0137314 0.0200377
0.00275 -0.015054 0.018
0.00495663 -0.0115393 0.0153209
0.0035 -0.013662 0.016
0.00398918 -0.0125644 0.015114
0.00275 -0.013381 0.014
-0.0141344 0.00333195 0.0143989
-0.01475 0.00375 0.012563
-0.0137844 0.00548663 0.014432
-0.014581 0.00575 0.01125
-0.0133979 0.00829055 0.0127847
-0.014055 0.008 0.01
-0.0118144 0.0107056 0.0109958
-0.01275 0.01005 0.0085
-0.0100622 0.0121232 0.00795917
-0.01155 0.01125 0.007
0.00945775 -0.00306356 0.00682371
0.00825 -0.005028 0.00525
-0.00518763 0.0135209 0.00552489
-0.007755 0.0135 0.00425
0.00960373 -0.00117578 0.00466186
0.00925 -0.0005 0.002613
0.000740056 0.0134733 0.00380115
-0.00075 0.014051 0.0015
0.00982866 0.00778003 0.00335184
0.009502 0.00625 0.00075
0.00940092 0.00754442 0.00185888
0.008581 0.00825 0.00025
0.00735673 0.0115479 0.00242248
0.00775 0.01025 -4.6e-05
0.00352637 -0.0148118 0.0243327
0.002072 -0.01725 0.02325
0.00386964 -0.0141089 0.0201354
0.0025 -0.016772 0.02075
-0.0137758 -0.0029134 0.0192066
-0.014571 -0.00625 0.01825
-0.0143226 -0.00415843 0.0181492
-0.015047 -0.0045 0.01625
-0.0139475 9.59876e-05 0.0167143
-0.015057 -0.0025 0.01475
-0.0145292 -0.000693926 0.0152728
-0.015074 -0.0005 0.01325
0.00467088 -0.0110786 0.012491
0.002549 -0.01275 0.01175
-0.0144497 0.00501465 0.0122699
-0.01525 0.0035 0.010347
0.00396905 -0.0115959 0.0118372
0.00375 -0.01155 0.00925
0.00543345 -0.0100801 0.0112722
0.00525 -0.010046 0.008
0.00773162 -0.00689063 0.00884589
0.0065 -0.008272 0.00675
0.00713265 -0.00733473 0.00716835
0.007 -0.006898 0.00525
-0.00977985 0.012357 0.0063104
-0.00975 0.012572 0.00375
0.00868972 -0.00381487 0.00530538
0.00775 -0.004063 0.00275
-0.00307231 0.0135383 0.00384666
-0.00475 0.013557 0.00175
0.0100533 0.00289165 0.00299168
0.009057 0.00125 0.00075
0.00215611 0.013608 0.0022269
0.00125 0.014056 -0
0.00271211 0.0136393 0.0016162
0.0045 0.013558 -0.0005
0.00722775 0.011293 0.000871751
0.006559 0.01175 -0.001
0.00260994 -0.0162591 0.0243997
0.0015 -0.017891 0.0255
-0.0139842 -0.00556745 0.0211114
-0.014573 -0.00925 0.02275
-0.0142865 -0.00727238 0.0211935
-0.014559 -0.0085 0.02
0.00284635 -0.014964 0.0190624
0.001 -0.017 0.018301
0.00215935 -0.0155888 0.0184702
0.0015 -0.0155 0.016301
0.00316612 -0.0131525 0.0147273
0.0005 -0.01519 0.0145
0.00156645 -0.014142 0.0141009
0.0005 -0.014358 0.01275
-0.0144901 0.00241679 0.0137659
-0.015556 0.00075 0.0115
0.00336514 -0.0119422 0.0106318
0.002 -0.012872 0.00975
-0.0145622 0.00532692 0.0115018
-0.015 0.005827 0.00875
-0.0146149 0.00610997 0.00950071
-0.01425 0.007552 0.0075
-0.0111482 0.0113875 0.00730744
-0.01325 0.00955 0.00625
0.0066452 -0.00789093 0.00678683
0.004871 -0.0095 0.00525
-0.011835 0.0108889 0.00659389
-0.012 0.01137 0.00425
0.00812943 -0.00426646 0.00429267
0.0065 -0.006562 0.003
-0.00658665 0.0135238 0.00412996
-0.00725 0.013555 0.002
0.00929182 -0.00114371 0.003596
0.008058 -0.00225 0.001
-0.00341439 0.0136721 0.0023364
-0.002856 0.014 0.00025
0.00963683 0.00256774 0.00186259
0.009 0.003744 -0.00075
0.00111996 0.0139171 0.000362609
-0.00025 0.014072 -0.00125
0.00930544 0.00697871 0.00105424
0.008524 0.006 -0.00175
0.00881722 0.00796592 0.00062682
0.00775 0.008388 -0.002
0.00694192 0.0113069 -0.000255407
0.006858 0.01025 -0.0025
0.00215323 -0.0170426 0.0236044
0.001 -0.018812 0.02225
0.00152127 -0.0164721 0.0186252
0.0005 -0.01837 0.02
-0.0145115 -0.00800712 0.0202332
-0.015057 -0.00875 0.018
0.00160901 -0.0157648 0.0176087
-0.0005 -0.017017 0.0165
-0.0147488 -0.0046408 0.0170786
-0.015556 -0.00675 0.01525
-0.0151685 -0.00524758 0.0157077
-0.015556 -0.005 0.01375
-0.0148577 -0.0016489 0.0147017
-0.015556 -0.003 0.0125
0.000888572 -0.0142229 0.0130509
0 -0.014056 0.01075
-0.0151296 0.000786718 0.0119864
-0.015556 -0.0015 0.01
-0.0153044 0.000199164 0.011032
-0.015556 0.001 0.009
-0.0150153 0.00403586 0.010459
-0.015555 0.00325 0.008
0.00334793 -0.0118794 0.00977212
0.0025 -0.01225 0.007156
-0.0145787 0.00634392 0.00850542
-0.01506 0.005 0.00625
-0.0144526 0.00697424 0.00769776
-0.0145 0.007826 0.00525
-0.012284 0.0108066 0.00511756
-0.01325 0.010045 0.004
0.00667142 -0.00623007 0.00331986
0.00525 -0.008 0.002665
-0.00969194 0.0125678 0.00414416
-0.0095 0.012864 0.0015
0.00780351 -0.00422795 0.00323744
0.00675 -0.0045 0.000612
-0.00420884 0.0136157 0.00176906
-0.00575 0.013557 -0.00025
0.00848293 -0.00138748 0.0014784
0.007813 -0.00075 -0.001
0.00909568 0.00262107 0.000286204
0.00825 0.00175 -0.001528
0.00373831 0.0137078 -0.000312815
0.003823 0.014 -0.00225
0.00871787 0.00254393 -0.000628699
0.008028 0.00375 -0.00275
0.0065368 0.0111773 -0.0015626
0.005567 0.01175 -0.003
0.00159398 -0.0177025 0.0250599
0.00025 -0.019549 0.0255
-0.0144498 -0.00881962 0.0220807
-0.014573 -0.01225 0.02275
-0.0145634 -0.0101834 0.0218164
-0.01475 -0.01075 0.020563
0.000418507 -0.0177172 0.0191555
-0.00125 -0.01875 0.018948
-0.000146394 -0.0168135 0.0171535
-0.00225 -0.018079 0.01725
-0.0153894 -0.00638396 0.0155168
-0.015556 -0.00875 0.01575
-0.00104387 -0.0171463 0.0168712
-0.0025 -0.01675 0.014951
0.000849204 -0.0146229 0.0140895
-0.0015 -0.015556 0.01325
-0.01537 -0.00532884 0.0141297
-0.015556 -0.00575 0.01175
-0.0154816 -0.00516154 0.0122819
-0.015556 -0.00425 0.01025
0.00235014 -0.0125907 0.0100597
-0.000472 -0.01425 0.00875
-0.0154076 0.000247507 0.0100239
-0.015556 -0.001 0.00775
-0.0154848 0.000158803 0.00856145
-0.015556 0.001 0.00675
0.00304917 -0.0117669 0.00773877
0.00325 -0.011054 0.0055
0.00505293 -0.00921826 0.00526884
0.004 -0.009873 0.004
-0.0125751 0.01061 0.00448436
-0.0125 0.010871 0.00275
-0.0100821 0.012488 0.0027692
-0.01125 0.012029 0.0015
0.0068214 -0.00491226 0.00163082
0.0055 -0.006361 0.0005
-0.00958689 0.0126997 0.00190229
-0.008 0.01306 -0.00025
0.00783693 -0.00161599 0.000176753
0.00675 -0.00275 -0.001046
-0.00295435 0.0138583 0.000621471
-0.00225 0.014056 -0.002
0.00834861 0.00197361 -0.00124044
0.00725 0.000455 -0.00275
0.00352459 0.0139281 -0.00140204
0.002 0.014551 -0.00325
0.00816423 0.00382757 -0.00218148
0.007529 0.00575 -0.00375
0.00788655 0.00814429 -0.00171942
0.007018 0.008 -0.004
0.00370672 0.0137826 -0.00200156
0.00425 0.01275 -0.004049
0.000558828 -0.018999 0.0248687
-0.000951 -0.02075 0.024
0.000971293 -0.0184506 0.0226517
-0.00075 -0.020049 0.02175
-0.0146978 -0.010706 0.0210884
-0.015057 -0.0125 0.01975
-0.0148492 -0.00901082 0.0191419
-0.01525 -0.010955 0.01825
-0.00209106 -0.0176965 0.0168582
-0.00375 -0.018312 0.0165
-0.00247755 -0.0170818 0.0157328
-0.0045 -0.017369 0.015
-0.015476 -0.0076843 0.0150781
-0.015556 -0.009 0.01375
-0.00126032 -0.0153197 0.0134458
-0.004 -0.016045 0.01275
-0.0153597 -0.00569263 0.0132976
-0.015081 -0.00825 0.01175
-0.00217359 -0.0154789 0.0128805
-0.0025 -0.015058 0.01075
-0.000222526 -0.0140259 0.00913434
-0.002 -0.014872 0.009
-0.0154478 -0.00108436 0.0101637
-0.015556 -0.00375 0.008
0.000984876 -0.0133352 0.00922379
0.0005 -0.0135 0.006931
-0.0153394 0.00342434 0.00835361
-0.015556 0.00275 0.00575
0.00288651 -0.011651 0.00671587
0.0015 -0.012314 0.00475
-0.0149207 0.00555017 0.00652217
-0.01525 0.005045 0.004
-0.0149519 0.0058486 0.00500064
-0.01475 0.007049 0.00325
0.00422541 -0.00957861 0.00411904
0.003 -0.009944 0.00225
0.00546857 -0.00743203 0.00254474
0.004 -0.0085 0.0013
0.00465743 -0.00780681 0.0014339
0.00425 -0.00755 -0
-0.00925171 0.0127504 0.0005731
-0.00975 0.012572 -0.001
0.00627963 -0.0053157 0.000880602
0.0055 -0.005 -0.001547
-0.00541354 0.0134475 -2.37476e-06
-0.00675 0.013082 -0.00225
0.00723433 -0.00205098 -0.000695956
0.00625 -0.001888 -0.003
-0.00564649 0.0133911 -0.00105018
-0.0045 0.01375 -0.003152
0.000339081 0.0140732 -0.000906578
-0.00025 0.014556 -0.00375
0.00786724 0.00160228 -0.00206936
0.007029 0.00225 -0.00425
0.00769391 0.00433724 -0.00327711
0.007029 0.004 -0.00475
0.00709662 0.00840772 -0.00336777
0.006058 0.00925 -0.005
0.00424745 0.012743 -0.0035663
0.005017 0.01125 -0.00525
-0.000660003 -0.0201383 0.024907
-0.0025 -0.021567 0.02575
-0.0145696 -0.0119117 0.0224932
-0.014573 -0.015 0.02325
-0.000551483 -0.0196924 0.0221107
-0.0025 -0.021059 0.02175
-0.000862597 -0.0187034 0.0193256
-0.00225 -0.020059 0.02
-0.00200405 -0.0193943 0.0193263
-0.00375 -0.020009 0.01875
-0.00330371 -0.0182792 0.016939
-0.005 -0.01925 0.017454
-0.0151397 -0.0103144 0.0181181
-0.015543 -0.012 0.01625
-0.00424419 -0.0185022 0.0168947
-0.00675 -0.018 0.015629
-0.0154408 -0.00853874 0.0146386
-0.01507 -0.01125 0.0145
-0.00401922 -0.017008 0.0150017
-0.00625 -0.016572 0.01375
-0.00595615 -0.0165718 0.0138706
-0.00775 -0.016073 0.01275
-0.015244 -0.00954536 0.0142476
-0.01475 -0.0105 0.012113
-0.00331353 -0.0156915 0.0126066
-0.00575 -0.015582 0.01125
-0.0152398 -0.00688517 0.0119491
-0.01525 -0.007029 0.01025
-0.00276332 -0.0153981 0.0113527
-0.004 -0.015551 0.00925
-0.0152194 -0.0069396 0.0105647
-0.015057 -0.00675 0.00825
0.00020395 -0.0136729 0.00786744
-0.00125 -0.014353 0.007
-0.0155127 -0.00233374 0.0083755
-0.015556 -0.0025 0.00625
-0.015514 0.000258694 0.00760876
-0.015556 -0.00075 0.00525
-0.000287169 -0.013813 0.00716179
-0.0005 -0.013362 0.0045
-0.0155358 0.000224173 0.0059622
-0.015556 0.001 0.00375
0.00177461 -0.0120141 0.00504635
0.0005 -0.01219 0.003
0.00143801 -0.0117724 0.00370225
0.001665 -0.011 0.002
-0.0127607 0.010455 0.00363327
-0.014046 0.009 0.00175
-0.0130662 0.0101324 0.00237397
-0.01275 0.01055 0.00075
0.00431538 -0.00787848 0.000810999
0.003 -0.008814 -0.00025
-0.0106894 0.0122399 0.00179729
-0.0115 0.011863 -0.001
0.00546185 -0.00554628 -0.000656319
0.00425 -0.0065 -0.001834
0.00545761 -0.00514731 -0.00122492
0.005358 -0.00375 -0.003
0.00736103 0.000717387 -0.00268678
0.0065 -0.000539 -0.004
LINES 599 1797
2 2 1
2 6 2
2 12 3
2 2 4
2 10 5
2 14 6
2 16 7
2 4 8
2 20 9
2 8 10
2 18 11
2 4 12
2 26 13
2 22 14
2 24 15
2 6 16
2 32 17
2 10 18
2 34 19
2 8 20
2 38 21
2 50 22
2 42 23
2 14 24
2 30 25
2 12 26
2 26 27
2 24 28
2 44 29
2 28 30
2 46 31
2 16 32
2 58 33
2 18 34
2 62 35
2 20 36
2 66 37
2 36 38
2 56 39
2 34 40
2 72 41
2 22 42
2 64 43
2 28 44
2 78 45
2 30 46
2 80 47
2 46 48
2 82 49
2 0 50
2 60 51
2 40 52
2 52 53
2 36 54
2 54 55
2 68 56
2 84 57
2 32 58
2 100 59
2 50 60
2 86 61
2 52 62
2 106 63
2 42 64
2 64 65
2 54 66
2 94 67
2 38 68
2 98 69
2 58 70
2 70 71
2 40 72
2 102 73
2 60 74
2 90 75
2 62 76
2 76 77
2 44 78
2 112 79
2 48 80
2 114 81
2 48 82
2 116 83
2 56 84
2 136 85
2 74 86
2 88 87
2 86 88
2 104 89
2 74 90
2 124 91
2 90 92
2 110 93
2 96 94
2 128 95
2 66 96
2 130 97
2 68 98
2 152 99
2 70 100
2 118 101
2 72 102
2 138 103
2 88 104
2 140 105
2 76 106
2 142 107
2 106 108
2 162 109
2 126 110
2 148 111
2 78 112
2 150 113
2 80 114
2 172 115
2 82 116
2 178 117
2 100 118
2 156 119
2 102 120
2 158 121
2 144 122
2 122 123
2 92 124
2 164 125
2 92 126
2 166 127
2 94 128
2 192 129
2 96 130
2 194 131
2 130 132
2 170 133
2 116 134
2 134 135
2 84 136
2 154 137
2 120 138
2 206 139
2 122 140
2 180 141
2 108 142
2 184 143
2 104 144
2 186 145
2 108 146
2 190 147
2 110 148
2 168 149
2 112 150
2 196 151
2 98 152
2 200 153
2 136 154
2 204 155
2 118 156
2 230 157
2 120 158
2 234 159
2 140 160
2 210 161
2 146 162
2 188 163
2 124 164
2 216 165
2 126 166
2 218 167
2 148 168
2 220 169
2 132 170
2 222 171
2 114 172
2 224 173
2 172 174
2 254 175
2 156 176
2 176 177
2 134 178
2 260 179
2 182 180
2 180 181
2 160 182
2 208 183
2 142 184
2 184 185
2 144 186
2 240 187
2 162 188
2 242 189
2 146 190
2 190 191
2 128 192
2 246 193
2 132 194
2 194 195
2 150 196
2 196 197
2 170 198
2 252 199
2 152 200
2 226 201
2 178 202
2 288 203
2 154 204
2 290 205
2 138 206
2 262 207
2 182 208
2 232 209
2 160 210
2 238 211
2 188 212
2 268 213
2 186 214
2 274 215
2 164 216
2 276 217
2 166 218
2 278 219
2 168 220
2 250 221
2 198 222
2 282 223
2 174 224
2 284 225
2 200 226
2 256 227
2 204 228
2 228 229
2 176 230
2 294 231
2 236 232
2 264 233
2 158 234
2 298 235
2 208 236
2 300 237
2 210 238
2 304 239
2 214 240
2 348 241
2 212 242
2 308 243
2 242 244
2 314 245
2 192 246
2 248 247
2 246 248
2 316 249
2 220 250
2 320 251
2 198 252
2 286 253
2 174 254
2 324 255
2 226 256
2 326 257
2 230 258
2 258 259
2 202 260
2 330 261
2 206 262
2 296 263
2 232 264
2 336 265
2 234 266
2 340 267
2 212 268
2 270 269
2 268 270
2 344 271
2 240 272
2 272 273
2 214 274
2 352 275
2 216 276
2 276 277
2 218 278
2 278 279
2 250 280
2 356 281
2 222 282
2 322 283
2 224 284
2 364 285
2 252 286
2 366 287
2 202 288
2 288 289
2 228 290
2 374 291
2 290 292
2 376 293
2 258 294
2 332 295
2 262 296
2 380 297
2 266 298
2 298 299
2 236 300
2 302 301
2 300 302
2 388 303
2 238 304
2 392 305
2 304 306
2 306 307
2 244 308
2 312 309
2 274 310
2 400 311
2 308 312
2 402 313
2 244 314
2 314 315
2 248 316
2 358 317
2 316 318
2 318 319
2 280 320
2 412 321
2 282 322
2 414 323
2 254 324
2 416 325
2 256 326
2 370 327
2 260 328
2 372 329
2 328 330
2 422 331
2 294 332
2 378 333
2 296 334
2 428 335
2 264 336
2 430 337
2 336 338
2 384 339
2 266 340
2 382 341
2 340 342
2 386 343
2 270 344
2 442 345
2 344 346
2 394 347
2 272 348
2 396 349
2 312 350
2 448 351
2 310 352
2 354 353
2 352 354
2 406 355
2 280 356
2 360 357
2 318 358
2 456 359
2 356 360
2 408 361
2 322 362
2 410 363
2 284 364
2 364 365
2 286 366
2 418 367
2 324 368
2 468 369
2 326 370
2 420 371
2 328 372
2 530 373
2 292 374
2 374 375
2 292 376
2 476 377
2 332 378
2 426 379
2 334 380
2 482 381
2 342 382
2 434 383
2 338 384
2 486 385
2 342 386
2 436 387
2 302 388
2 438 389
2 388 390
2 444 391
2 306 392
2 392 393
2 346 394
2 394 395
2 348 396
2 502 397
2 396 398
2 450 399
2 310 400
2 506 401
2 350 402
2 454 403
2 354 404
2 510 405
2 404 406
2 406 407
2 360 408
2 458 409
2 362 410
2 516 411
2 320 412
2 464 413
2 362 414
2 462 415
2 368 416
2 524 417
2 366 418
2 466 419
2 370 420
2 470 421
2 330 422
2 478 423
2 420 424
2 474 425
2 378 426
2 426 427
2 334 428
2 480 429
2 338 430
2 542 431
2 430 432
2 484 433
2 382 434
2 546 435
2 386 436
2 488 437
2 390 438
2 492 439
2 436 440
2 490 441
2 346 442
2 494 443
2 390 444
2 446 445
2 496 446
2 446 447
2 350 448
2 500 449
2 398 450
2 452 451
2 450 452
2 576 453
2 402 454
2 508 455
2 358 456
2 514 457
2 408 458
2 586 459
2 412 460
2 592 461
2 414 462
2 522 463
2 460 464
2 520 465
2 418 466
2 526 467
2 368 468
2 468 469
2 424 470
2 598 471
2 422 472
2 472 473
2 424 474
2 534 475
2 376 476
2 536 477
2 472 478
2 538 479
2 428 480
2 540 481
2 380 482
2 544 483
2 432 484
2 484 485
2 384 486
2 552 487
2 440 488
2 550 489
2 440 490
2 558 491
2 438 492
2 556 493
2 442 494
2 564 495
2 444 496
2 566 497
2 494 498
2 568 499
2 504 500
2 500 501
2 398 502
2 574 503
2 448 504
2 572 505
2 400 506
2 506 507
2 454 508
2 582 509
2 404 510
2 512 511
2 510 512
2 512 513
2 456 514
2 514 515
2 410 516
2 518 517
2 516 518
2 590 519
2 464 520
2 520 521
2 462 522
2 596 523
2 416 524
2 528 525
2 466 526
2 526 527
2 524 528
2 528 529
2 372 530
2 530 531
2 470 532
2 532 533
2 474 534
2 534 535
2 476 536
2 536 537
2 478 538
2 538 539
2 480 540
2 540 541
2 432 542
2 542 543
2 482 544
2 544 545
2 434 546
2 548 547
2 546 548
2 548 549
2 488 550
2 554 551
2 486 552
2 552 553
2 550 554
2 554 555
2 492 556
2 562 557
2 490 558
2 560 559
2 558 560
2 560 561
2 556 562
2 562 563
2 498 564
2 564 565
2 496 566
2 570 567
2 498 568
2 568 569
2 566 570
2 570 571
2 504 572
2 578 573
2 502 574
2 574 575
2 452 576
2 580 577
2 572 578
2 578 579
2 576 580
2 580 581
2 508 582
2 584 583
2 582 584
2 584 585
2 458 586
2 588 587
2 586 588
2 588 589
2 518 590
2 590 591
2 460 592
2 592 593
2 522 594
2 594 595
2 594 596
2 596 597
2 532 598
2 598 599
CELL_DATA 599
SCALARS radius float
LOOKUP_TABLE default
0.12494
0.906134
0.0938534
0.905341
0.0930991
0.932623
0.0952158
0.902127
0.105476
0.732381
0.111631
0.198955
0.112794
0.992933
0.0821779
0.406507
0.0938815
0.73188
0.102086
0.698872
0.0891881
0.995734
0.109217
0.551531
0.0877168
0.191735
0.177724
0.550923
0.0975444
0.52788
0.121575
0.404758
0.10194
0.731013
0.0897183
0.69807
0.100305
0.526914
0.106111
0.730349
0.126334
0.202525
0.114393
0.271967
0.0917533
0.527071
0.0916425
0.524906
0.122145
1.11611
0.0956949
0.583637
0.136822
0.578776
0.134073
0.400124
0.112676
0.403068
0.103167
0.738703
0.0840417
0.581119
0.0998439
0.19133
0.176593
0.576368
0.111115
0.526061
0.119397
0.400882
0.139877
0.575665
0.116537
0.738168
0.0988291
0.580406
0.135481
0.267719
0.120107
0.409025
0.123436
0.423945
0.115972
0.397621
0.107149
0.659437
0.10937
0.658981
0.109144
0.486943
0.0882409
0.485583
0.0914808
0.378603
0.110732
0.575354
0.11755
0.433603
0.120911
0.395123
0.145872
0.573629
0.122568
0.657976
0.0910306
0.577934
0.0992659
0.576939
0.0855761
0.437384
0.113967
0.264077
0.132243
0.407485
0.0982182
0.420538
0.119513
0.392765
0.135279
0.572022
0.0930853
0.555057
0.128511
0.254771
0.118609
0.460979
0.0992361
0.375386
0.102546
0.514497
0.110229
0.512444
0.140014
0.417577
0.142999
0.394581
0.136935
0.405208
0.101765
0.552751
0.104548
0.217158
0.133397
0.656973
0.120331
0.566496
0.125569
0.436046
0.115982
0.255521
0.159169
0.430564
0.127167
0.39193
0.133125
0.38594
0.138959
0.494115
0.105313
0.551927
0.0957633
0.558202
0.11975
0.251192
0.104793
0.242641
0.129848
0.433435
0.117315
0.503884
0.0931919
0.403674
0.101004
0.401727
0.11651
0.380318
0.164109
0.411911
0.104201
0.168707
0.154095
0.524807
0.114824
0.210012
0.190275
0.482819
0.101288
0.557531
0.100039
0.198902
0.180585
0.372146
0.119696
0.187878
0.174268
0.243122
0.217844
0.500254
0.137338
0.427362
0.126465
0.408529
0.11667
0.386277
0.118421
0.401435
0.127872
0.51893
0.111982
0.286782
0.129027
0.555683
0.106513
0.480315
0.100448
0.242049
0.14594
0.236977
0.139677
0.430649
0.120608
0.438519
0.101762
0.262066
0.135353
0.423575
0.143881
0.380933
0.168598
0.369847
0.136129
0.396825
0.130594
0.493011
0.109907
0.517049
0.126877
0.283178
0.137386
0.386617
0.109901
0.470376
0.104384
0.468863
0.129478
0.369533
0.160353
0.365298
0.157649
0.427727
0.117583
0.34444
0.136491
0.360457
0.137084
0.419784
0.149988
0.363189
0.186448
0.390789
0.110897
0.399243
0.147311
0.39383
0.126111
0.491404
0.134143
0.40719
0.144891
0.404746
0.130431
0.384286
0.139792
0.375678
0.105578
0.235316
0.214882
0.223196
0.203229
0.424507
0.111157
0.437111
0.141262
0.256966
0.176885
0.337002
0.147511
0.204099
0.190506
0.36959
0.15465
0.365492
0.136318
0.346011
0.187443
0.394822
0.120884
0.188599
0.175232
0.423099
0.149327
0.419261
0.124391
0.273951
0.156249
0.261913
0.174722
0.453749
0.155375
0.373269
0.122231
0.4519
0.132507
0.212899
0.195562
0.354694
0.130134
0.343993
0.183896
0.341548
0.113606
0.435265
0.1212
0.356353
0.131238
0.414072
0.163108
0.388304
0.12519
0.340654
0.146744
0.338839
0.181998
0.387864
0.129494
0.388984
0.137193
0.384514
0.123155
0.481964
0.134874
0.478475
0.149527
0.398459
0.139652
0.393745
0.138903
0.378018
0.116827
0.445693
0.125362
0.333943
0.132551
0.330388
0.142179
0.332184
0.162186
0.325498
0.149202
0.327982
0.15095
0.430248
0.128877
0.243784
0.207651
0.329367
0.160841
0.349459
0.13755
0.407406
0.16548
0.266921
0.162224
0.239362
0.215553
0.327449
0.149218
0.318525
0.226937
0.303428
0.146945
0.31709
0.158925
0.286593
0.164511
0.426642
0.138819
0.412849
0.11816
0.40905
0.122434
0.232899
0.206598
0.225319
0.206136
0.374896
0.12227
0.371075
0.150275
0.245336
0.138833
0.353762
0.15352
0.323117
0.145534
0.222716
0.201432
0.314191
0.155495
0.333653
0.153072
0.336838
0.135772
0.348979
0.159952
0.308298
0.142689
0.319193
0.191154
0.398498
0.128865
0.336691
0.134277
0.388749
0.156785
0.297342
0.244416
0.312145
0.166805
0.321759
0.147639
0.31322
0.148229
0.308738
0.151694
0.42043
0.143222
0.309746
0.162039
0.415323
0.161477
0.367431
0.129781
0.338322
0.159188
0.233667
0.205862
0.353731
0.15736
0.318881
0.166325
0.307344
0.167411
0.347454
0.179166
0.318411
0.182753
0.302119
0.165989
0.332474
0.154679
0.344037
0.178084
0.279453
0.210783
0.304954
0.189846
0.237363
0.220843
0.31555
0.152331
0.32713
0.207829
0.301219
0.22449
0.319376
0.210007
0.296367
0.176325
0.304532
0.20353
0.296893
0.178431
0.234806
0.213186
0.278803
0.166297
0.320024
0.161651
0.338729
0.165773
0.303905
0.163504
0.36058
0.182511
0.332891
0.183006
0.354886
0.187901
0.244659
0.220688
0.265289
0.193502
0.348402
0.17617
0.234775
0.217328
0.337161
0.159717
0.283094
0.200432
0.269644
0.226066
0.307093
0.283797
0.327116
0.192779
0.315538
0.205189
0.268334
0.215126
0.332102
0.159171
0.300158
0.21807
0.277525
0.244034
0.289
0.239672
0.257406
0.233836
0.308217
0.220434
0.286337
0.229974
0.308127
0.271407
0.286878
0.262693
0.286842
0.247549
0.261018
0.244214
0.284373
0.258711
0.29401
0.201726
0.279881
0.239368
0.310162
0.206412
0.258229
0.232822
0.294774
0.256213
0.287701
0.204507
0.326027
0.1792
0.311064
0.289823
0.268896
0.22165
0.279413
0.250584
0.288976
0.149916
0.283898
0.253277
0.262086
0.244594
0.302373
0.196019
0.256332
0.212512
0.290165
0.195409
0.280958
0.244668
0.270254
0.230692
0.319375
0.229281
0.305463
0.254319
0.287713
0.211339
0.267973
0.214025
0.289456
0.249937
0.246225
0.223918
0.314072
0.22129
0.272092
0.252567
0.264805
0.246807
