# vtk DataFile Version 3.0
Tree
ASCII
DATASET POLYDATA
POINTS 800 float
-0.004 0.02 0.0265
0.0065 0.01 0.026302
0.00461 0.0117065 0.0248517
0.00725 0.009063 0.02275
0.00651684 0.00919274 0.0236607
0.008403 0.00575 0.023
0.002251 0.0141968 0.0248625
0.004365 0.0135 0.02175
0.00798227 0.00671168 0.0225814
0.009056 0.00525 0.02075
0.00810849 0.00642317 0.022707
0.00825 0.001955 0.02325
0.00673679 0.00915382 0.0233875
0.00752 0.0095 0.0185
-0.00021699 0.0164905 0.0249999
0.00025 0.016072 0.02175
0.00362524 0.0136039 0.0222794
0.004366 0.0125 0.01775
0.00841472 0.00318742 0.0224062
0.009 0.00125 0.020857
0.00849278 0.00625239 0.0212705
0.009558 0.00625 0.01675
-0.00165453 0.0178241 0.0255699
-0.00225 0.017068 0.022
0.000121553 0.0160064 0.0222925
0.0005 0.014557 0.0175
0.00741777 0.00917922 0.019084
0.00805 0.00875 0.015
-0.000373534 0.0157967 0.0203604
-0.001971 0.0165 0.0195
0.000660746 0.0146169 0.0180842
0.002322 0.013 0.0155
0.00431722 0.0124045 0.0184418
0.00525 0.010582 0.01375
0.00859651 0.00171308 0.0216513
0.00825 -0.0025 0.020887
0.00899938 0.00551641 0.0194171
0.010057 0.001 0.01675
0.00942436 0.00600444 0.0172285
0.01 0.00633 0.0135
0.00828742 -0.000329282 0.0219488
0.007057 -0.00475 0.02525
-0.00292181 0.0173682 0.023008
-0.0055 0.01706 0.0205
-0.00124256 0.0159451 0.0196125
-0.0035 0.0155 0.016678
0.00094678 0.013989 0.0167605
-0.0005 0.01325 0.013613
0.0008086 0.013511 0.0152783
0.00275 0.012 0.012244
-0.00329636 0.0193472 0.026221
-0.008582 0.01475 0.02325
0.00837548 -0.00139293 0.0210943
0.00901 -0.0025 0.0185
0.00994396 0.00279525 0.0169735
0.010862 0.00225 0.0145
0.00949968 0.00669342 0.0142031
0.008871 0.008 0.01175
0.00523151 0.011023 0.0143414
0.00625 0.010074 0.0105
-0.00773401 0.0148733 0.023823
-0.010084 0.01125 0.02275
0.00830772 -0.00199075 0.0209824
0.00757 -0.0055 0.02025
-0.00488873 0.0167512 0.0206632
-0.007 0.015517 0.0175
0.0100173 0.0017792 0.0165457
0.01025 -0.001 0.014349
0.00968714 0.00598508 0.0151256
0.01107 0.00375 0.0115
0.0052826 0.0107829 0.0119094
0.00425 0.01125 0.010046
0.00736477 -0.00393373 0.0235636
0.00675 -0.006887 0.023
-0.00872248 0.0137732 0.0227051
-0.00925 0.01405 0.02075
0.00818451 -0.00363552 0.0199015
0.0085 -0.004857 0.01775
-0.00340762 0.0153817 0.0171472
-0.00575 0.014569 0.015
-0.000322302 0.0134052 0.0141383
-0.00325 0.013557 0.01225
0.00134344 0.0127601 0.0128994
0.0005 0.012556 0.01025
0.00950288 0.00730284 0.0121575
0.01005 0.00775 0.009
-0.00989695 0.0117611 0.022776
-0.01175 0.00875 0.02292
-0.0109116 0.00967445 0.0221848
-0.011403 0.00775 0.0205
-0.00914877 0.0135129 0.0216585
-0.01075 0.01138 0.019
-0.00959921 0.0129974 0.0197161
-0.009385 0.0135 0.017
0.00987693 -0.000740921 0.01527
0.00925 -0.004045 0.0145
0.0100945 0.000411459 0.0153266
0.011 -0.00025 0.011756
0.0106308 0.00488523 0.0120302
0.011082 0.00525 0.00925
0.00603663 0.0104252 0.0109076
0.00825 0.01 0.008277
0.00689847 -0.00578165 0.0236024
0.005571 -0.00975 0.02525
-0.0111967 0.00843043 0.0216734
-0.012 0.0045 0.021781
0.00781116 -0.00493412 0.0199323
0.007054 -0.00825 0.01925
0.00756248 -0.00637838 0.0189475
0.007572 -0.00725 0.017
-0.00917002 0.0132699 0.0175337
-0.00825 0.01354 0.01425
-0.00481278 0.0147767 0.0154333
-0.00625 0.013556 0.0115
-0.0016347 0.013345 0.0123164
-0.0025 0.01306 0.00925
0.00126013 0.0126522 0.0112512
0.002857 0.0125 0.00775
0.00662758 0.0106367 0.00918212
0.00625 0.011545 0.007
0.00632831 -0.00800843 0.0235492
0.006 -0.010333 0.022
-0.0117487 0.00609121 0.0210293
-0.01225 0.004568 0.01925
-0.0104302 0.0117423 0.0191023
-0.012 0.009 0.017531
-0.00957643 0.0129725 0.0180128
-0.011 0.011827 0.0155
0.00938874 -0.00332509 0.0141864
0.009029 -0.00525 0.0125
0.0104278 -0.000623256 0.0127626
0.01025 -0.002528 0.01025
0.0104677 -0.000945281 0.0114874
0.011056 0.00075 0.0085
0.00122054 0.012729 0.00929058
-0.00025 0.013057 0.00725
0.0100977 0.00729114 0.009493
0.011002 0.00675 0.00625
0.00579143 -0.00940405 0.0240836
0.00506 -0.0115 0.024
-0.0119319 0.00484381 0.0213331
-0.012573 0.00025 0.02175
0.00709449 -0.00787493 0.0190741
0.006072 -0.01025 0.01875
-0.0114947 0.00716725 0.0213256
-0.01275 0.0065 0.01688
0.00762859 -0.00695571 0.0173316
0.008 -0.007327 0.0145
-0.00910801 0.0130529 0.0150735
-0.01 0.012186 0.0125
-0.00569507 0.0138492 0.011884
-0.0055 0.013557 0.0095
0.0108484 0.00471397 0.0103529
0.011057 0.00275 0.007
0.0103762 0.00752645 0.0073372
0.010059 0.00875 0.0055
0.00676621 0.0109328 0.00800745
0.008346 0.011 0.005
0.00589506 -0.0100696 0.0222857
0.00525 -0.012049 0.02125
-0.0123848 0.00287503 0.0207407
-0.013 0.00175 0.01886
0.00761161 -0.007044 0.0172321
0.0065 -0.009827 0.01625
-0.0115821 0.00997455 0.0173808
-0.01275 0.008563 0.01475
-0.0105967 0.0119692 0.0159362
-0.012 0.010371 0.01275
-0.00915184 0.0127919 0.0131053
-0.0085 0.012864 0.01025
0.010548 -0.000763735 0.00978135
0.01025 -0.00175 0.007955
-0.00257388 0.0133132 0.00970655
-0.004 0.013557 0.0065
-0.00279955 0.0134595 0.00743262
-0.00175 0.013557 0.00525
0.00693082 0.0113877 0.0063117
0.006 0.0125 0.004529
0.00184151 0.0127155 0.00816894
0.0025 0.013074 0.00425
-0.0128273 0.000740012 0.0215333
-0.01375 -0.00175 0.022418
-0.0127238 0.00124367 0.0209712
-0.013194 -0.001 0.0195
0.00620127 -0.00971997 0.0183896
0.005073 -0.01175 0.017
-0.0124809 0.0058569 0.0183418
-0.013582 0.00325 0.01575
0.00676432 -0.00883224 0.0160129
0.005856 -0.01025 0.014
0.00754735 -0.00750692 0.0150026
0.006914 -0.0085 0.01225
0.00902478 -0.00478104 0.0125446
0.0085 -0.006325 0.01025
0.0102036 -0.00210671 0.0105371
0.00925 -0.00438 0.0085
-0.00587948 0.0136631 0.0104144
-0.0075 0.01325 0.007347
0.0104608 -0.000927024 0.00868885
0.0105 -2.8e-05 0.0055
0.0108336 0.00381559 0.00757116
0.010557 0.00375 0.00425
0.00172928 0.0130945 0.00529406
0.0005 0.013557 0.0035
0.0102379 0.00785311 0.00623003
0.01 0.0075 0.002972
0.00522611 -0.0110187 0.0239756
0.004 -0.0145 0.023569
-0.0130699 -0.00062304 0.0204862
-0.013557 -0.0035 0.0205
-0.0128897 0.00182876 0.0193347
-0.01375 -0.0005 0.017549
0.00590965 -0.0101362 0.0150851
0.00475 -0.011869 0.015
-0.0131853 0.00520131 0.0165041
-0.014053 0.00575 0.014
-0.0126563 0.00882318 0.0149619
-0.01375 0.007879 0.0125
-0.0114109 0.0110249 0.0131396
-0.0115 0.01088 0.0105
-0.00925074 0.012607 0.0109721
-0.01025 0.012049 0.00875
0.0102694 -0.0014841 0.00818427
0.0095 -0.003319 0.0065
-0.00365881 0.0135151 0.00665603
-0.00525 0.013557 0.00475
0.0105058 0.00321099 0.00503277
0.010058 0.00175 0.00325
0.00982777 0.00827124 0.00414305
0.009045 0.00975 0.0025
0.00742761 0.0113052 0.0053539
0.00775 0.011546 0.002
-0.0134862 -0.00283922 0.0209411
-0.014 -0.00525 0.022095
0.00531738 -0.0115483 0.0215554
0.00375 -0.014552 0.02025
-0.0133556 -0.00176648 0.0202973
-0.01407 -0.00325 0.018
-0.0135459 0.000641504 0.0177072
-0.01425 0.00025 0.015563
-0.0135514 0.00387906 0.0157943
-0.014582 0.00175 0.01375
0.00569781 -0.0103394 0.0143952
0.0045 -0.011368 0.01225
0.00537063 -0.0104212 0.0128597
0.005556 -0.00975 0.01075
0.00828991 -0.00624642 0.01088
0.007 -0.00825 0.009222
0.00790105 -0.00680384 0.00995913
0.008 -0.006364 0.0075
-0.00960038 0.0124071 0.00949828
-0.00925 0.012574 0.006
0.0101343 -0.000952649 0.00642554
0.00925 -0.002046 0.00425
-0.00237982 0.013518 0.00549305
-0.0025 0.013557 0.003
0.0103141 0.00289114 0.00409183
0.01 0.003744 0.00175
0.00708344 0.0118568 0.00320156
0.00583 0.013 0.0015
0.00211528 0.0131807 0.00446406
0.003 0.01375 0.001379
0.00411236 -0.0137618 0.0241698
0.003 -0.015842 0.02525
-0.0138107 -0.00449569 0.0211168
-0.014058 -0.006 0.02025
0.00397156 -0.0137314 0.0200377
0.00275 -0.015054 0.018
0.00495663 -0.0115393 0.0153209
0.0035 -0.013662 0.016
0.00398918 -0.0125644 0.015114
0.00275 -0.013381 0.014
-0.0141344 0.00333195 0.0143989
-0.01475 0.00375 0.012563
-0.0137844 0.00548663 0.014432
-0.014581 0.00575 0.01125
-0.0133979 0.00829055 0.0127847
-0.014055 0.008 0.01
-0.0118144 0.0107056 0.0109958
-0.01275 0.01005 0.0085
-0.0100622 0.0121232 0.00795917
-0.01155 0.01125 0.007
0.00945775 -0.00306356 0.00682371
0.00825 -0.005028 0.00525
-0.00518763 0.0135209 0.00552489
-0.007755 0.0135 0.00425
0.00960373 -0.00117578 0.00466186
0.00925 -0.0005 0.002613
0.000740056 0.0134733 0.00380115
-0.00075 0.014051 0.0015
0.00982866 0.00778003 0.00335184
0.009502 0.00625 0.00075
0.00940092 0.00754442 0.00185888
0.008581 0.00825 0.00025
0.00735673 0.0115479 0.00242248
0.00775 0.01025 -4.6e-05
0.00352637 -0.0148118 0.0243327
0.002072 -0.01725 0.02325
0.00386964 -0.0141089 0.0201354
0.0025 -0.016772 0.02075
-0.0137758 -0.0029134 0.0192066
-0.014571 -0.00625 0.01825
-0.0143226 -0.00415843 0.0181492
-0.015047 -0.0045 0.01625
-0.0139475 9.59876e-05 0.0167143
-0.015057 -0.0025 0.01475
-0.0145292 -0.000693926 0.0152728
-0.015074 -0.0005 0.01325
0.00467088 -0.0110786 0.012491
0.002549 -0.01275 0.01175
-0.0144497 0.00501465 0.0122699
-0.01525 0.0035 0.010347
0.00396905 -0.0115959 0.0118372
0.00375 -0.01155 0.00925
0.00543345 -0.0100801 0.0112722
0.00525 -0.010046 0.008
0.00773162 -0.00689063 0.00884589
0.0065 -0.008272 0.00675
0.00713265 -0.00733473 0.00716835
0.007 -0.006898 0.00525
-0.00977985 0.012357 0.0063104
-0.00975 0.012572 0.00375
0.00868972 -0.00381487 0.00530538
0.00775 -0.004063 0.00275
-0.00307231 0.0135383 0.00384666
-0.00475 0.013557 0.00175
0.0100533 0.00289165 0.00299168
0.009057 0.00125 0.00075
0.00215611 0.013608 0.0022269
0.00125 0.014056 -0
0.00271211 0.0136393 0.0016162
0.0045 0.013558 -0.0005
0.00722775 0.011293 0.000871751
0.006559 0.01175 -0.001
0.00260994 -0.0162591 0.0243997
0.0015 -0.017891 0.0255
-0.0139842 -0.00556745 0.0211114
-0.014573 -0.00925 0.02275
-0.0142865 -0.00727238 0.0211935
-0.014559 -0.0085 0.02
0.00284635 -0.014964 0.0190624
0.001 -0.017 0.018301
0.00215935 -0.0155888 0.0184702
0.0015 -0.0155 0.016301
0.00316612 -0.0131525 0.0147273
0.0005 -0.01519 0.0145
0.00156645 -0.014142 0.0141009
0.0005 -0.014358 0.01275
-0.0144901 0.00241679 0.0137659
-0.015556 0.00075 0.0115
0.00336514 -0.0119422 0.0106318
0.002 -0.012872 0.00975
-0.0145622 0.00532692 0.0115018
[...]
CELL_DATA 799
SCALARS radius float
LOOKUP_TABLE default
0.115774
0.91233
0.086837
0.911708
0.0859872
0.933336
0.0883529
0.909199
0.09735
0.744603
0.102853
0.184082
0.104362
1.00036
0.0760897
0.377207
0.0871148
0.744221
0.0939305
0.697097
0.0819774
1.00258
0.101529
0.572913
0.0806436
0.177401
0.164438
0.572466
0.0900797
0.555875
0.111475
0.375584
0.0945925
0.743565
0.0822418
0.696464
0.0920414
0.531758
0.0972577
0.743065
0.115304
0.188268
0.10634
0.251155
0.0847317
0.555309
0.0836204
0.553808
0.11058
1.14667
0.0884291
0.575505
0.125497
0.572321
0.123165
0.366741
0.103276
0.374015
0.0957313
0.793667
0.0772094
0.573509
0.0911895
0.177861
0.164162
0.570413
0.101757
0.531108
0.108362
0.371988
0.129795
0.603379
0.105988
0.793301
0.0910033
0.572945
0.123935
0.247231
0.110915
0.392939
0.112304
0.477954
0.10422
0.364446
0.0982093
0.728372
0.100064
0.728082
0.0996
0.483209
0.0810422
0.482131
0.0836671
0.346718
0.101406
0.569613
0.107106
0.46491
0.109088
0.366644
0.135358
0.601972
0.110166
0.727452
0.0822395
0.571005
0.0904573
0.570229
0.07777
0.445277
0.103675
0.243868
0.122123
0.391673
0.0889422
0.475973
0.105525
0.364455
0.125528
0.600875
0.0836998
0.62778
0.116571
0.233987
0.108932
0.463012
0.0908876
0.343772
0.0939103
0.523098
0.100159
0.521597
0.126699
0.474301
0.127238
0.361661
0.125511
0.431869
0.0906818
0.626437
0.0931076
0.197888
0.121559
0.726829
0.108563
0.562171
0.114139
0.44429
0.10496
0.235967
0.146988
0.462939
0.113325
0.359231
0.122018
0.358122
0.128943
0.514758
0.0941892
0.625964
0.085895
0.555868
0.108402
0.2307
0.0962439
0.222228
0.118924
0.4424
0.105447
0.515429
0.0837847
0.388571
0.0910044
0.387011
0.104144
0.352906
0.152281
0.471229
0.0892303
0.150246
0.137233
0.611137
0.101305
0.191376
0.17339
0.514957
0.089903
0.55536
0.0899932
0.180797
0.164147
0.340805
0.109615
0.170713
0.158346
0.224517
0.201173
0.512864
0.123904
0.460911
0.111018
0.469459
0.100833
0.354049
0.108541
0.429466
0.111846
0.608095
0.0968827
0.25723
0.115731
0.55398
0.0958099
0.513343
0.0893892
0.222302
0.134034
0.21704
0.127926
0.440422
0.107774
0.471607
0.0905026
0.23612
0.121952
0.458616
0.125426
0.349151
0.154531
0.343189
0.126317
0.516514
0.110746
0.514019
0.0972117
0.607156
0.110375
0.253997
0.123228
0.438495
0.0955374
0.485596
0.0929059
0.484564
0.115794
0.338411
0.146849
0.334534
0.144373
0.438398
0.102751
0.310746
0.12314
0.355165
0.121417
0.456437
0.129609
0.337011
0.173009
0.461006
0.0911397
0.428114
0.1276
0.515376
0.105378
0.512963
0.117547
0.381461
0.129988
0.379436
0.116733
0.437231
0.122698
0.370756
0.0924552
0.216119
0.197351
0.204419
0.186132
0.436216
0.0976841
0.470724
0.124281
0.231525
0.159373
0.304036
0.133082
0.176395
0.164647
0.338754
0.141748
0.334998
0.124945
0.321071
0.173932
0.425554
0.101803
0.166814
0.154991
0.441438
0.128652
0.439126
0.106232
0.245721
0.140148
0.234923
0.156717
0.47456
0.13756
0.369016
0.107731
0.47337
0.11596
0.190397
0.174893
0.324822
0.119175
0.315023
0.168409
0.363394
0.0967089
0.469606
0.104418
0.352155
0.11342
0.453258
0.139371
0.459889
0.0972912
0.403317
0.115108
0.314417
0.16888
0.421695
0.105538
0.513665
0.108122
0.512183
0.095618
0.507014
0.115986
0.504899
0.129245
0.374281
0.123842
0.370457
0.123634
0.433986
0.0990691
0.469466
0.108185
0.342393
0.113847
0.340131
0.120655
0.32716
0.141354
0.298085
0.136636
0.324231
0.129145
0.466687
0.108075
0.219648
0.187093
0.297148
0.145108
0.347276
0.120532
0.449698
0.138647
0.316353
0.117016
0.219391
0.197569
0.300129
0.136768
0.295567
0.21058
0.285024
0.120562
0.320868
0.133014
0.451633
0.119257
0.457368
0.117747
0.435413
0.0975257
0.433295
0.101141
0.208899
0.185308
0.20055
0.183476
0.432438
0.0976741
0.430697
0.123531
0.216232
0.122363
0.331892
0.132924
0.335825
0.117271
0.189
0.170939
0.315016
0.131389
0.366617
0.122574
0.360635
0.109517
0.374126
0.134115
0.320375
0.118263
0.28797
0.172456
0.445191
0.10359
0.40176
0.0985865
0.440662
0.121204
0.27591
0.2268
0.372853
0.129024
0.348266
0.102677
0.344756
0.108256
0.315735
0.121246
0.453901
0.116222
0.336051
0.129827
0.451245
0.132175
0.349727
0.113576
0.351419
0.129736
0.190435
0.167775
0.405974
0.119807
0.355057
0.132369
0.350001
0.129285
0.327105
0.153955
0.291595
0.167362
0.307608
0.137578
0.358302
0.122635
0.371395
0.146468
0.29296
0.160934
0.275124
0.171275
0.207997
0.193521
0.353018
0.118564
0.398585
0.157619
0.346428
0.146015
0.29273
0.192486
0.390194
0.115116
0.370013
0.145014
0.280627
0.138961
0.220678
0.125491
0.4502
0.106441
0.377924
0.124911
0.335919
0.130793
0.333291
0.12718
0.344472
0.153044
0.348604
0.119748
0.340306
0.163104
0.308069
0.141424
0.327524
0.112847
0.403397
0.141992
0.206924
0.191546
0.319618
0.13356
0.314552
0.151855
0.309022
0.158943
0.281231
0.259896
0.363459
0.145615
0.358751
0.147337
0.287767
0.142342
0.365472
0.118014
0.315565
0.175679
0.250378
0.220162
0.309928
0.177542
0.313255
0.135781
0.350019
0.148042
0.34141
0.166268
0.282419
0.248763
0.344981
0.123373
0.364708
0.147753
0.311515
0.124856
0.273005
0.161888
0.307661
0.151332
0.301252
0.158729
0.374224
0.12171
0.447393
0.124821
0.369526
0.15309
0.32659
0.124902
0.328955
0.127463
0.321913
0.180662
0.320031
0.130395
0.290221
0.176579
0.328526
0.115767
0.246433
0.219852
0.202387
0.188879
0.331431
0.130454
0.324602
0.116102
0.343572
0.139649
0.322506
0.148352
0.337358
0.123963
0.307238
0.157985
0.298583
0.205767
0.2994
0.151115
0.289386
0.148178
0.350569
0.150074
0.275257
0.135998
0.357456
0.157293
0.296446
0.13687
0.206107
0.192098
0.307715
0.135352
0.327724
0.144461
0.388084
0.146631
0.259091
0.167029
0.235781
0.216109
0.356899
0.12535
0.260434
0.237647
0.307752
0.152336
0.287943
0.16593
0.211628
0.195759
0.261214
0.143784
0.445376
0.112454
0.319567
0.155166
0.307399
0.217491
0.442084
0.135902
0.429306
0.175577
0.245273
0.159822
0.269531
0.239187
0.383768
0.13389
0.233963
0.205864
0.36488
0.13228
0.315109
0.227068
0.262181
0.171551
0.300621
0.154598
0.275278
0.248548
0.294149
0.152856
0.301907
0.147639
0.293782
0.153358
0.263193
0.167473
0.288124
0.162388
0.206819
0.193824
0.329185
0.163508
0.292483
0.176427
0.29628
0.164336
0.280173
0.186206
0.31876
0.185155
0.229157
0.204744
0.230212
0.207601
0.34167
0.195722
0.269903
0.154894
0.26972
0.183024
0.289839
0.15818
0.290076
0.216727
0.225876
0.20835
0.324362
0.145119
0.313739
0.150253
0.340655
0.143037
0.27359
0.159208
0.317763
0.199868
0.267087
0.182382
0.34825
0.171671
0.263867
0.168773
0.284548
0.178215
0.220875
0.193458
0.270873
0.248287
0.252091
0.235422
0.193787
0.180239
0.265709
0.246751
0.424717
0.178757
0.271856
0.191029
0.243174
0.194945
0.371105
0.136246
0.358769
0.136584
0.323815
0.190335
0.230365
0.213098
0.316283
0.193786
0.250956
0.220743
0.2914
0.259459
0.291186
0.213568
0.279163
0.212875
0.262966
0.204385
0.277942
0.227214
0.272846
0.192225
0.252044
0.224495
0.252141
0.207445
0.248322
0.229244
0.220019
0.184489
0.261622
0.240807
0.284864
0.193878
0.260238
0.217835
0.259894
0.223059
0.271203
0.238695
0.307262
0.208479
0.266891
0.195986
0.254559
0.207759
0.250561
0.212527
0.256003
0.235504
0.279541
0.226788
0.265674
0.245488
0.246642
0.228609
0.298637
0.181134
0.247221
0.209285
0.266737
0.222356
0.251343
0.231993
0.242382
0.212382
0.264958
0.244216
0.252645
0.215871
0.267755
0.241796
0.254199
0.226489
0.276197
0.248845
