# vtk DataFile Version 3.0
Tree
ASCII
DATASET POLYDATA
POINTS 10 float
0.019839 0.001786 -0.005
0.019869 0.000917 0.001569
0.0196063 0.00245661 -0.00236047
0.018119 0.008252 0.001185
0.0196831 0.00119442 0.00068413
0.019498 -0.00271 0.009563
0.0197692 0.00198718 -0.00420814
0.017753 -0.009047 0
0.01902 0.00469076 0.000387473
0.018287 0.007238 0.01043
LINES 9 27
2 4 1
2 6 2
2 8 3
2 2 4
2 4 5
2 0 6
2 6 7
2 2 8
2 8 9
CELL_DATA 9
SCALARS radius float
LOOKUP_TABLE default
0.291149
0.718033
0.401915
0.549735
0.521042
0.782053
0.476386
0.588736
0.518182
