# vtk DataFile Version 3.0
Tree
ASCII
DATASET POLYDATA
POINTS 54 float
0.019839 0.001786 -0.005
0.019869 0.000917 0.001569
0.0196063 0.00245661 -0.00236047
0.018119 0.008252 0.001185
0.0196831 0.00119442 0.00068413
0.019498 -0.00271 0.009563
0.0197692 0.00198718 -0.00420814
0.017753 -0.009047 0
0.01902 0.00469076 0.000387473
0.018287 0.007238 0.01043
0.0195163 -0.000102025 0.00760208
0.019352 0.002142 0.012707
0.0180378 0.00722565 0.000898521
0.014257 0.013894 0.002044
0.0193223 -0.00171659 0.00919272
0.018166 -0.006605 0.015182
0.0181151 -0.00593914 0.000835155
0.016742 -0.010558 0.007792
0.0175515 0.0079047 0.00607531
0.014613 0.013258 0.009224
0.0173796 -0.00798742 0.000643101
0.01356 -0.014576 0.001074
0.0192383 0.00187319 0.0116242
0.018129 0.005832 0.017735
0.0189333 -0.00280761 0.0131614
0.018924 -0.001423 0.018233
0.0145317 0.0124979 0.00287529
0.010917 0.016529 0.006322
0.0164908 0.00980234 0.00831295
0.015642 0.011135 0.015986
0.0187753 -0.00288336 0.015474
0.017823 -0.006019 0.019899
0.0127214 0.0143556 0.0034735
0.008572 0.017993 0.000501
0.0148129 -0.0121396 0.00256036
0.012578 -0.015287 0.006998
0.0165732 -0.00974217 0.00698513
0.01457 -0.012923 0.012861
0.0152925 -0.0116349 0.0122553
0.014861 -0.011958 0.017413
0.01837 0.00432914 0.0172285
0.017722 0.004989 0.02291
0.0151428 0.0116104 0.0132613
0.012889 0.014356 0.015024
0.0152559 0.0114351 0.0152703
0.014703 0.011547 0.0208
0.0174842 0.00566041 0.0217488
0.016132 0.008141 0.025256
0.0131151 -0.0138974 0.00391331
0.006996 -0.018625 0.003666
0.0114197 0.0157249 0.00575304
0.008966 0.017461 0.011007
0.0128808 0.0139147 0.0143631
0.00964 0.016702 0.015182
LINES 53 159
2 4 1
2 6 2
2 12 3
2 2 4
2 14 5
2 0 6
2 20 7
2 2 8
2 18 9
2 4 10
2 22 11
2 8 12
2 26 13
2 10 14
2 24 15
2 6 16
2 36 17
2 8 18
2 28 19
2 16 20
2 34 21
2 10 22
2 40 23
2 14 24
2 30 25
2 12 26
2 50 27
2 18 28
2 44 29
2 24 30
2 30 31
2 26 32
2 32 33
2 20 34
2 48 35
2 16 36
2 38 37
2 36 38
2 38 39
2 22 40
2 46 41
2 28 42
2 52 43
2 42 44
2 44 45
2 40 46
2 46 47
2 34 48
2 48 49
2 32 50
2 50 51
2 42 52
2 52 53
CELL_DATA 53
SCALARS radius float
LOOKUP_TABLE default
0.172769
0.8619
0.18643
0.658092
0.204582
0.958482
0.206796
0.70825
0.279001
0.654099
0.214349
0.52789
0.237051
0.504584
0.322545
0.621674
0.228177
0.592656
0.287528
0.505192
0.289738
0.532958
0.275147
0.493116
0.324407
0.520023
0.262465
0.571284
0.249306
0.442001
0.373755
0.503056
0.354433
0.493367
0.322986
0.481064
0.307514
0.463305
0.412851
0.52114
0.32701
0.545894
0.26449
0.427151
0.396727
0.494206
0.440948
0.457517
0.395947
0.435824
0.401454
0.439234
0.404608
