# vtk DataFile Version 3.0
Tree
ASCII
DATASET POLYDATA
POINTS 180 float
0.019839 0.001786 -0.005
0.019869 0.000917 0.001569
0.0196063 0.00245661 -0.00236047
0.018119 0.008252 0.001185
0.0196831 0.00119442 0.00068413
0.019498 -0.00271 0.009563
0.0197692 0.00198718 -0.00420814
0.017753 -0.009047 0
0.01902 0.00469076 0.000387473
0.018287 0.007238 0.01043
0.0195163 -0.000102025 0.00760208
0.019352 0.002142 0.012707
0.0180378 0.00722565 0.000898521
0.014257 0.013894 0.002044
0.0193223 -0.00171659 0.00919272
0.018166 -0.006605 0.015182
0.0181151 -0.00593914 0.000835155
0.016742 -0.010558 0.007792
0.0175515 0.0079047 0.00607531
0.014613 0.013258 0.009224
0.0173796 -0.00798742 0.000643101
0.01356 -0.014576 0.001074
0.0192383 0.00187319 0.0116242
0.018129 0.005832 0.017735
0.0189333 -0.00280761 0.0131614
0.018924 -0.001423 0.018233
0.0145317 0.0124979 0.00287529
0.010917 0.016529 0.006322
0.0164908 0.00980234 0.00831295
0.015642 0.011135 0.015986
0.0187753 -0.00288336 0.015474
0.017823 -0.006019 0.019899
0.0127214 0.0143556 0.0034735
0.008572 0.017993 0.000501
0.0148129 -0.0121396 0.00256036
0.012578 -0.015287 0.006998
0.0165732 -0.00974217 0.00698513
0.01457 -0.012923 0.012861
0.0152925 -0.0116349 0.0122553
0.014861 -0.011958 0.017413
0.01837 0.00432914 0.0172285
0.017722 0.004989 0.02291
0.0151428 0.0116104 0.0132613
0.012889 0.014356 0.015024
0.0152559 0.0114351 0.0152703
0.014703 0.011547 0.0208
0.0174842 0.00566041 0.0217488
0.016132 0.008141 0.025256
0.0131151 -0.0138974 0.00391331
0.006996 -0.018625 0.003666
0.0114197 0.0157249 0.00575304
0.008966 0.017461 0.011007
0.0128808 0.0139147 0.0143631
0.00964 0.016702 0.015182
0.0150025 -0.0116735 0.0105581
0.010019 -0.016642 0.013308
0.0184175 -0.00362171 0.0179412
0.018056 -0.00211 0.024563
0.0140646 0.0124352 0.0178602
0.011475 0.014911 0.01978
0.0178607 -0.00505078 0.0194765
0.015587 -0.009206 0.025132
0.0169128 -0.00649167 0.0231859
0.017074 -0.005448 0.026261
0.0103771 0.0160492 0.00293671
0.003979 0.019438 0.005372
0.0180768 -0.00163755 0.0231636
0.017717 0.001305 0.027133
0.0121762 -0.0143861 0.0137086
0.010604 -0.015683 0.018667
0.0158832 -0.00835691 0.0239233
0.012873 -0.013029 0.023588
0.0141685 0.0120947 0.019854
0.013576 0.011716 0.026432
0.00920172 -0.0167628 0.00534945
0.006132 -0.018728 0.009325
0.0103343 0.0157831 0.0157933
0.00749 0.017402 0.018535
0.00565763 0.0183718 0.00600195
0.002662 0.019503 0.010405
0.00752446 -0.0179496 0.00387664
0.003996 -0.01952 0
0.00699279 0.0175875 0.00389543
0.000699 0.019903 0.00037
0.00508906 -0.0188499 0.00273523
0.001851 -0.019819 0.003123
0.0124041 0.0138814 0.0195493
0.010158 0.015161 0.024029
0.00404508 0.0189851 0.00988614
0.004178 0.018946 0.013584
0.0168177 0.0065945 0.0241595
0.016104 0.006131 0.0302
0.00445832 0.0187345 0.00723493
0.000201 0.01978 0.007318
0.0169837 -0.00558369 0.0257068
0.016832 -0.003808 0.02999
0.0102546 -0.0156804 0.0158773
0.006661 -0.017897 0.017204
0.0166955 -0.0063824 0.025131
0.015143 -0.0085 0.029337
0.00651847 -0.0181784 0.0091591
0.004004 -0.019011 0.013276
0.0135978 0.0117679 0.0253783
0.012589 0.011356 0.031592
0.00670826 -0.0178999 0.00760003
0.001166 -0.019728 0.007547
0.0130341 -0.0119044 0.0240738
0.009148 -0.015687 0.024844
0.017733 -9.39954e-05 0.0261826
0.016726 0.00035 0.032536
0.00859705 -0.0166213 0.0175909
0.007415 -0.017141 0.02086
0.0105488 0.0147161 0.0235792
0.008345 0.0154 0.028822
0.00267777 -0.0193915 0.00316668
-0.002189 -0.019742 0.004626
0.00900439 0.0154458 0.0252288
0.006922 0.016736 0.024977
0.00136549 0.0192935 0.00820933
-0.001722 0.019536 0.01062
0.00771119 0.0169931 0.0170605
0.003404 0.018717 0.017969
0.0141038 -0.0104694 0.0247832
0.011924 -0.01255 0.029603
0.00163333 0.0190881 0.00220682
-0.003157 0.019639 0.002901
0.00510196 0.0179118 0.0186237
0.003315 0.018304 0.021605
-0.000201087 0.0193482 0.0105781
-0.001583 0.019281 0.014603
0.0167852 0.00149848 0.0305342
0.015499 0.005086 0.034463
0.0166861 -0.00478546 0.0288134
0.015324 -0.005336 0.034741
0.0070231 -0.0174707 0.0174349
0.003301 -0.01877 0.017665
0.015437 -0.00597631 0.0326986
0.014171 -0.008252 0.034221
0.00396707 -0.0188009 0.0115654
0.00028 -0.01945 0.013048
0.0166518 0.000804927 0.0321232
0.016014 7.2e-05 0.035736
-0.00196103 0.019263 0.00181105
-0.005729 0.019083 0
0.0123135 0.0117835 0.0305329
0.010452 0.012412 0.034911
0.000365852 -0.0195012 0.00311736
-0.00445 -0.019499 0
0.00180031 -0.0190471 0.0134163
-0.000611 -0.019124 0.016905
0.00388107 0.0182786 0.0184331
-0.000344 0.018979 0.018525
-0.00156319 -0.0195361 0.00424132
-0.005566 -0.019011 0.006512
0.00742782 -0.0170416 0.0197116
0.003876 -0.018027 0.022698
0.00812139 0.015436 0.0281305
0.006416 0.01545 0.032512
0.0125935 -0.0115234 0.0290126
0.011201 -0.011856 0.03438
0.00101614 0.0194394 0.00794193
-0.00512 0.019119 0.007414
0.0125497 -0.0116668 0.0275815
0.008505 -0.015183 0.029364
0.00757143 0.0161279 0.0252227
0.002785 0.01783 0.025671
-0.00135288 0.0193178 0.0107228
-0.005495 0.018769 0.011531
0.000355555 -0.0190603 0.0144872
-0.003869 -0.018993 0.014337
0.00166136 0.0185249 0.0194785
-0.000425 0.018558 0.022088
-0.00332754 -0.0192294 0.0020049
-0.007321 -0.018533 0.002707
-0.00379136 0.0190892 0.00162712
-0.007768 0.018369 0.00399
0.00535581 -0.0174349 0.0226915
0.004087 -0.01732 0.026941
0.0119421 0.0115383 0.0324955
0.013251 0.00882 0.036108
LINES 179 537
2 4 1
2 6 2
2 12 3
2 2 4
2 14 5
2 0 6
2 20 7
2 2 8
2 18 9
2 4 10
2 22 11
2 8 12
2 26 13
2 10 14
2 24 15
2 6 16
2 36 17
2 8 18
2 28 19
2 16 20
2 34 21
2 10 22
2 40 23
2 14 24
2 30 25
2 12 26
2 50 27
2 18 28
2 44 29
2 24 30
2 60 31
2 26 32
2 64 33
2 20 34
2 48 35
2 16 36
2 38 37
2 54 38
2 38 39
2 22 40
2 46 41
2 28 42
2 52 43
2 42 44
2 72 45
2 40 46
2 90 47
2 34 48
2 80 49
2 32 50
2 50 51
2 42 52
2 76 53
2 36 54
2 68 55
2 30 56
2 66 57
2 44 58
2 86 59
2 56 60
2 70 61
2 60 62
2 94 63
2 32 64
2 78 65
2 56 66
2 108 67
2 54 68
2 96 69
2 62 70
2 106 71
2 58 72
2 102 73
2 48 74
2 100 75
2 52 76
2 120 77
2 82 78
2 88 79
2 74 80
2 84 81
2 64 82
2 124 83
2 80 84
2 114 85
2 58 86
2 112 87
2 92 88
2 88 89
2 46 90
2 90 91
2 78 92
2 160 93
2 98 94
2 132 95
2 68 96
2 134 97
2 62 98
2 98 99
2 104 100
2 138 101
2 72 102
2 144 103
2 74 104
2 104 105
2 122 106
2 106 107
2 66 108
2 140 109
2 96 110
2 154 111
2 86 112
2 156 113
2 84 114
2 152 115
2 112 116
2 164 117
2 92 118
2 166 119
2 76 120
2 150 121
2 70 122
2 158 123
2 82 124
2 142 125
2 120 126
2 126 127
2 118 128
2 128 129
2 108 130
2 130 131
2 94 132
2 136 133
2 110 134
2 134 135
2 132 136
2 136 137
2 100 138
2 148 139
2 130 140
2 140 141
2 124 142
2 174 143
2 102 144
2 178 145
2 114 146
2 172 147
2 138 148
2 168 149
2 126 150
2 170 151
2 146 152
2 152 153
2 110 154
2 176 155
2 116 156
2 156 157
2 162 158
2 158 159
2 118 160
2 160 161
2 122 162
2 162 163
2 116 164
2 164 165
2 128 166
2 166 167
2 148 168
2 168 169
2 150 170
2 170 171
2 146 172
2 172 173
2 142 174
2 174 175
2 154 176
2 176 177
2 144 178
2 178 179
CELL_DATA 179
SCALARS radius float
LOOKUP_TABLE default
0.124972
0.971805
0.131568
0.720719
0.137589
1.09198
0.141784
0.816036
0.193177
0.719464
0.146909
0.618696
0.155302
0.672892
0.202257
0.727052
0.14655
0.674295
0.193231
0.616793
0.185177
0.407646
0.182273
0.670969
0.190016
0.616706
0.164871
0.668968
0.14182
0.664787
0.152753
0.613405
0.200129
0.614286
0.195071
0.530944
0.183281
0.276133
0.246062
0.401184
0.201883
0.66355
0.143873
0.576087
0.166618
0.388228
0.248064
0.608625
0.154464
0.273769
0.25218
0.465657
0.174872
0.527196
0.215957
0.659571
0.179151
0.573208
0.175726
0.585073
0.184346
0.581582
0.150597
0.594661
0.191901
0.442525
0.200605
0.500628
0.224443
0.485391
0.205658
0.445964
0.181395
0.60187
0.154686
0.461033
0.197405
0.506093
0.215189
0.487503
0.222311
0.587007
0.21237
0.482278
0.176017
0.463605
0.167361
0.307096
0.266826
0.369104
0.327173
0.496723
0.188564
0.405701
0.213429
0.486858
0.186143
0.43507
0.249741
0.441276
0.214763
0.438072
0.220476
0.467488
0.253237
0.327955
0.298417
0.432513
0.206046
0.470409
0.209637
0.455031
0.211691
0.465988
0.20358
0.447356
0.208276
0.454033
0.180043
0.452489
0.196745
0.476361
0.227341
0.417253
0.224259
0.439601
0.268029
0.396113
0.289879
0.417622
0.311958
0.398663
0.286031
0.320054
0.297516
0.377131
0.311539
0.434847
0.235459
0.348914
0.3231
0.398044
0.271545
0.42745
0.303406
0.457462
0.278155
0.416633
0.289683
0.403506
0.291793
0.345023
0.319565
0.414682
0.269997
0.363255
0.337509
0.357008
0.323173
0.315634
0.291386
0.417595
0.30118
0.346483
0.319323
0.335588
0.31734
0.389884
0.326973
0.38727
0.321522
0.379514
0.321209
0.372741
0.316699
0.395994
0.34874
0.406928
0.34043
