# vtk DataFile Version 3.0
Tree
ASCII
DATASET POLYDATA
POINTS 126 float
0.019839 0.001786 -0.005
0.019869 0.000917 0.001569
0.0196063 0.00245661 -0.00236047
0.018119 0.008252 0.001185
0.0196831 0.00119442 0.00068413
0.019498 -0.00271 0.009563
0.0197692 0.00198718 -0.00420814
0.017753 -0.009047 0
0.01902 0.00469076 0.000387473
0.018287 0.007238 0.01043
0.0195163 -0.000102025 0.00760208
0.019352 0.002142 0.012707
0.0180378 0.00722565 0.000898521
0.014257 0.013894 0.002044
0.0193223 -0.00171659 0.00919272
0.018166 -0.006605 0.015182
0.0181151 -0.00593914 0.000835155
0.016742 -0.010558 0.007792
0.0175515 0.0079047 0.00607531
0.014613 0.013258 0.009224
0.0173796 -0.00798742 0.000643101
0.01356 -0.014576 0.001074
0.0192383 0.00187319 0.0116242
0.018129 0.005832 0.017735
0.0189333 -0.00280761 0.0131614
0.018924 -0.001423 0.018233
0.0145317 0.0124979 0.00287529
0.010917 0.016529 0.006322
0.0164908 0.00980234 0.00831295
0.015642 0.011135 0.015986
0.0187753 -0.00288336 0.015474
0.017823 -0.006019 0.019899
0.0127214 0.0143556 0.0034735
0.008572 0.017993 0.000501
0.0148129 -0.0121396 0.00256036
0.012578 -0.015287 0.006998
0.0165732 -0.00974217 0.00698513
0.01457 -0.012923 0.012861
0.0152925 -0.0116349 0.0122553
0.014861 -0.011958 0.017413
0.01837 0.00432914 0.0172285
0.017722 0.004989 0.02291
0.0151428 0.0116104 0.0132613
0.012889 0.014356 0.015024
0.0152559 0.0114351 0.0152703
0.014703 0.011547 0.0208
0.0174842 0.00566041 0.0217488
0.016132 0.008141 0.025256
0.0131151 -0.0138974 0.00391331
0.006996 -0.018625 0.003666
0.0114197 0.0157249 0.00575304
0.008966 0.017461 0.011007
0.0128808 0.0139147 0.0143631
0.00964 0.016702 0.015182
0.0150025 -0.0116735 0.0105581
0.010019 -0.016642 0.013308
0.0184175 -0.00362171 0.0179412
0.018056 -0.00211 0.024563
0.0140646 0.0124352 0.0178602
0.011475 0.014911 0.01978
0.0178607 -0.00505078 0.0194765
0.015587 -0.009206 0.025132
0.0169128 -0.00649167 0.0231859
0.017074 -0.005448 0.026261
0.0103771 0.0160492 0.00293671
0.003979 0.019438 0.005372
0.0180768 -0.00163755 0.0231636
0.017717 0.001305 0.027133
0.0121762 -0.0143861 0.0137086
0.010604 -0.015683 0.018667
0.0158832 -0.00835691 0.0239233
0.012873 -0.013029 0.023588
0.0141685 0.0120947 0.019854
0.013576 0.011716 0.026432
0.00920172 -0.0167628 0.00534945
0.006132 -0.018728 0.009325
0.0103343 0.0157831 0.0157933
0.00749 0.017402 0.018535
0.00565763 0.0183718 0.00600195
0.002662 0.019503 0.010405
0.00752446 -0.0179496 0.00387664
0.003996 -0.01952 0
0.00699279 0.0175875 0.00389543
0.000699 0.019903 0.00037
0.00508906 -0.0188499 0.00273523
0.001851 -0.019819 0.003123
0.0124041 0.0138814 0.0195493
0.010158 0.015161 0.024029
0.00404508 0.0189851 0.00988614
0.004178 0.018946 0.013584
0.0168177 0.0065945 0.0241595
0.016104 0.006131 0.0302
0.00445832 0.0187345 0.00723493
0.000201 0.01978 0.007318
0.0169837 -0.00558369 0.0257068
0.016832 -0.003808 0.02999
0.0102546 -0.0156804 0.0158773
0.006661 -0.017897 0.017204
0.0166955 -0.0063824 0.025131
0.015143 -0.0085 0.029337
0.00651847 -0.0181784 0.0091591
0.004004 -0.019011 0.013276
0.0135978 0.0117679 0.0253783
0.012589 0.011356 0.031592
0.00670826 -0.0178999 0.00760003
0.001166 -0.019728 0.007547
0.0130341 -0.0119044 0.0240738
0.009148 -0.015687 0.024844
0.017733 -9.39954e-05 0.0261826
0.016726 0.00035 0.032536
0.00859705 -0.0166213 0.0175909
0.007415 -0.017141 0.02086
0.0105488 0.0147161 0.0235792
0.008345 0.0154 0.028822
0.00267777 -0.0193915 0.00316668
-0.002189 -0.019742 0.004626
0.00900439 0.0154458 0.0252288
0.006922 0.016736 0.024977
0.00136549 0.0192935 0.00820933
-0.001722 0.019536 0.01062
0.00771119 0.0169931 0.0170605
0.003404 0.018717 0.017969
0.0141038 -0.0104694 0.0247832
0.011924 -0.01255 0.029603
0.00163333 0.0190881 0.00220682
-0.003157 0.019639 0.002901
LINES 125 375
2 4 1
2 6 2
2 12 3
2 2 4
2 14 5
2 0 6
2 20 7
2 2 8
2 18 9
2 4 10
2 22 11
2 8 12
2 26 13
2 10 14
2 24 15
2 6 16
2 36 17
2 8 18
2 28 19
2 16 20
2 34 21
2 10 22
2 40 23
2 14 24
2 30 25
2 12 26
2 50 27
2 18 28
2 44 29
2 24 30
2 60 31
2 26 32
2 64 33
2 20 34
2 48 35
2 16 36
2 38 37
2 54 38
2 38 39
2 22 40
2 46 41
2 28 42
2 52 43
2 42 44
2 72 45
2 40 46
2 90 47
2 34 48
2 80 49
2 32 50
2 50 51
2 42 52
2 76 53
2 36 54
2 68 55
2 30 56
2 66 57
2 44 58
2 86 59
2 56 60
2 70 61
2 60 62
2 94 63
2 32 64
2 78 65
2 56 66
2 108 67
2 54 68
2 96 69
2 62 70
2 106 71
2 58 72
2 102 73
2 48 74
2 100 75
2 52 76
2 120 77
2 82 78
2 88 79
2 74 80
2 84 81
2 64 82
2 124 83
2 80 84
2 114 85
2 58 86
2 112 87
2 92 88
2 88 89
2 46 90
2 90 91
2 78 92
2 118 93
2 98 94
2 94 95
2 68 96
2 110 97
2 62 98
2 98 99
2 104 100
2 100 101
2 72 102
2 102 103
2 74 104
2 104 105
2 122 106
2 106 107
2 66 108
2 108 109
2 96 110
2 110 111
2 86 112
2 116 113
2 84 114
2 114 115
2 112 116
2 116 117
2 92 118
2 118 119
2 76 120
2 120 121
2 70 122
2 122 123
2 82 124
2 124 125
CELL_DATA 125
SCALARS radius float
LOOKUP_TABLE default
0.137246
0.944492
0.145204
0.716164
0.152777
1.05227
0.157802
0.780374
0.214611
0.71448
0.162482
0.597413
0.173465
0.64878
0.226375
0.685848
0.165092
0.639897
0.216109
0.570415
0.209151
0.450856
0.201594
0.645944
0.21385
0.59454
0.185269
0.631746
0.162457
0.63654
0.17454
0.589577
0.226811
0.56636
0.222562
0.515535
0.209551
0.315712
0.281331
0.44371
0.223283
0.623202
0.1689
0.552158
0.197582
0.429381
0.274359
0.556688
0.185908
0.307639
0.283378
0.419263
0.215182
0.509829
0.25474
0.628391
0.21302
0.547429
0.208128
0.563736
0.217765
0.558103
0.188117
0.560219
0.224495
0.41012
0.251508
0.465777
0.275135
0.477198
0.248688
0.412189
0.234649
0.544568
0.200402
0.409919
0.261036
0.482816
0.255501
0.446586
0.278392
0.547542
0.263976
0.435578
0.237216
0.454719
0.209381
0.364625
0.316811
0.40823
0.361854
0.466063
0.259702
0.337416
0.316677
0.438852
0.300285
0.402424
0.299093
0.350223
0.326821
0.396464
0.366918
0.416838
0.308884
0.396573
0.360854
0.389992
0.351438
0.399356
0.33206
0.439694
0.351642
0.393791
0.362709
0.423261
0.31862
0.375057
0.327861
0.389116
0.345185
0.461575
0.330102
0.372302
0.321431
