# vtk DataFile Version 3.0
Tree
ASCII
DATASET POLYDATA
POINTS 232 float
0.019839 0.001786 -0.005
0.019869 0.000917 0.001569
0.0196063 0.00245661 -0.00236047
0.018119 0.008252 0.001185
0.0196831 0.00119442 0.00068413
0.019498 -0.00271 0.009563
0.0197692 0.00198718 -0.00420814
0.017753 -0.009047 0
0.01902 0.00469076 0.000387473
0.018287 0.007238 0.01043
0.0195163 -0.000102025 0.00760208
0.019352 0.002142 0.012707
0.0180378 0.00722565 0.000898521
0.014257 0.013894 0.002044
0.0193223 -0.00171659 0.00919272
0.018166 -0.006605 0.015182
0.0181151 -0.00593914 0.000835155
0.016742 -0.010558 0.007792
0.0175515 0.0079047 0.00607531
0.014613 0.013258 0.009224
0.0173796 -0.00798742 0.000643101
0.01356 -0.014576 0.001074
0.0192383 0.00187319 0.0116242
0.018129 0.005832 0.017735
0.0189333 -0.00280761 0.0131614
0.018924 -0.001423 0.018233
0.0145317 0.0124979 0.00287529
0.010917 0.016529 0.006322
0.0164908 0.00980234 0.00831295
0.015642 0.011135 0.015986
0.0187753 -0.00288336 0.015474
0.017823 -0.006019 0.019899
0.0127214 0.0143556 0.0034735
0.008572 0.017993 0.000501
0.0148129 -0.0121396 0.00256036
0.012578 -0.015287 0.006998
0.0165732 -0.00974217 0.00698513
0.01457 -0.012923 0.012861
0.0152925 -0.0116349 0.0122553
0.014861 -0.011958 0.017413
0.01837 0.00432914 0.0172285
0.017722 0.004989 0.02291
0.0151428 0.0116104 0.0132613
0.012889 0.014356 0.015024
0.0152559 0.0114351 0.0152703
0.014703 0.011547 0.0208
0.0174842 0.00566041 0.0217488
0.016132 0.008141 0.025256
0.0131151 -0.0138974 0.00391331
0.006996 -0.018625 0.003666
0.0114197 0.0157249 0.00575304
0.008966 0.017461 0.011007
0.0128808 0.0139147 0.0143631
0.00964 0.016702 0.015182
0.0150025 -0.0116735 0.0105581
0.010019 -0.016642 0.013308
0.0184175 -0.00362171 0.0179412
0.018056 -0.00211 0.024563
0.0140646 0.0124352 0.0178602
0.011475 0.014911 0.01978
0.0178607 -0.00505078 0.0194765
0.015587 -0.009206 0.025132
0.0169128 -0.00649167 0.0231859
0.017074 -0.005448 0.026261
0.0103771 0.0160492 0.00293671
0.003979 0.019438 0.005372
0.0180768 -0.00163755 0.0231636
0.017717 0.001305 0.027133
0.0121762 -0.0143861 0.0137086
0.010604 -0.015683 0.018667
0.0158832 -0.00835691 0.0239233
0.012873 -0.013029 0.023588
0.0141685 0.0120947 0.019854
0.013576 0.011716 0.026432
0.00920172 -0.0167628 0.00534945
0.006132 -0.018728 0.009325
0.0103343 0.0157831 0.0157933
0.00749 0.017402 0.018535
0.00565763 0.0183718 0.00600195
0.002662 0.019503 0.010405
0.00752446 -0.0179496 0.00387664
0.003996 -0.01952 0
0.00699279 0.0175875 0.00389543
0.000699 0.019903 0.00037
0.00508906 -0.0188499 0.00273523
0.001851 -0.019819 0.003123
0.0124041 0.0138814 0.0195493
0.010158 0.015161 0.024029
0.00404508 0.0189851 0.00988614
0.004178 0.018946 0.013584
0.0168177 0.0065945 0.0241595
0.016104 0.006131 0.0302
0.00445832 0.0187345 0.00723493
0.000201 0.01978 0.007318
0.0169837 -0.00558369 0.0257068
0.016832 -0.003808 0.02999
0.0102546 -0.0156804 0.0158773
0.006661 -0.017897 0.017204
0.0166955 -0.0063824 0.025131
0.015143 -0.0085 0.029337
0.00651847 -0.0181784 0.0091591
0.004004 -0.019011 0.013276
0.0135978 0.0117679 0.0253783
0.012589 0.011356 0.031592
0.00670826 -0.0178999 0.00760003
0.001166 -0.019728 0.007547
0.0130341 -0.0119044 0.0240738
0.009148 -0.015687 0.024844
0.017733 -9.39954e-05 0.0261826
0.016726 0.00035 0.032536
0.00859705 -0.0166213 0.0175909
0.007415 -0.017141 0.02086
0.0105488 0.0147161 0.0235792
0.008345 0.0154 0.028822
0.00267777 -0.0193915 0.00316668
-0.002189 -0.019742 0.004626
0.00900439 0.0154458 0.0252288
0.006922 0.016736 0.024977
0.00136549 0.0192935 0.00820933
-0.001722 0.019536 0.01062
0.00771119 0.0169931 0.0170605
0.003404 0.018717 0.017969
0.0141038 -0.0104694 0.0247832
0.011924 -0.01255 0.029603
0.00163333 0.0190881 0.00220682
-0.003157 0.019639 0.002901
0.00510196 0.0179118 0.0186237
0.003315 0.018304 0.021605
-0.000201087 0.0193482 0.0105781
-0.001583 0.019281 0.014603
0.0167852 0.00149848 0.0305342
0.015499 0.005086 0.034463
0.0166861 -0.00478546 0.0288134
0.015324 -0.005336 0.034741
0.0070231 -0.0174707 0.0174349
0.003301 -0.01877 0.017665
0.015437 -0.00597631 0.0326986
0.014171 -0.008252 0.034221
0.00396707 -0.0188009 0.0115654
0.00028 -0.01945 0.013048
0.0166518 0.000804927 0.0321232
0.016014 7.2e-05 0.035736
-0.00196103 0.019263 0.00181105
-0.005729 0.019083 0
0.0123135 0.0117835 0.0305329
0.010452 0.012412 0.034911
0.000365852 -0.0195012 0.00311736
-0.00445 -0.019499 0
0.00180031 -0.0190471 0.0134163
-0.000611 -0.019124 0.016905
0.00388107 0.0182786 0.0184331
-0.000344 0.018979 0.018525
-0.00156319 -0.0195361 0.00424132
-0.005566 -0.019011 0.006512
0.00742782 -0.0170416 0.0197116
0.003876 -0.018027 0.022698
0.00812139 0.015436 0.0281305
0.006416 0.01545 0.032512
0.0125935 -0.0115234 0.0290126
0.011201 -0.011856 0.03438
0.00101614 0.0194394 0.00794193
-0.00512 0.019119 0.007414
0.0125497 -0.0116668 0.0275815
0.008505 -0.015183 0.029364
0.00757143 0.0161279 0.0252227
0.002785 0.01783 0.025671
-0.00135288 0.0193178 0.0107228
-0.005495 0.018769 0.011531
0.000355555 -0.0190603 0.0144872
-0.003869 -0.018993 0.014337
0.00166136 0.0185249 0.0194785
-0.000425 0.018558 0.022088
-0.00332754 -0.0192294 0.0020049
-0.007321 -0.018533 0.002707
-0.00379136 0.0190892 0.00162712
-0.007768 0.018369 0.00399
0.00535581 -0.0174349 0.0226915
0.004087 -0.01732 0.026941
0.0119421 0.0115383 0.0324955
0.013251 0.00882 0.036108
0.0153371 -0.00536084 0.0341171
0.014941 -0.002815 0.038892
-0.00177447 0.0191197 0.0138081
-0.004241 0.018609 0.017514
0.015801 0.00331415 0.0340538
0.01474 0.003883 0.038614
0.0147129 -0.00703232 0.0339091
0.01343 -0.00783 0.037539
-0.00382707 0.0186763 0.0151304
-0.006991 0.017974 0.015354
-0.000299637 -0.0190144 0.016242
-0.001908 -0.018573 0.020977
0.00468921 0.0169616 0.0265327
0.002748 0.01716 0.029389
-0.00141683 -0.0190634 0.0138561
-0.004157 -0.019212 0.010269
0.00432503 -0.0177103 0.0228536
0.000847 -0.01826 0.023837
0.00324795 0.0174232 0.0260805
-0.000845 0.018088 0.025457
-0.00452961 0.0188554 0.00803154
-0.008271 0.017903 0.009167
0.00964083 -0.0139058 0.0297599
0.007939 -0.01464 0.032815
0.00618339 0.0156127 0.0312256
0.003149 0.016051 0.034177
-0.00477615 0.0185792 0.0116681
-0.008845 0.017307 0.013175
0.00837356 -0.0144973 0.0306772
0.003871 -0.016715 0.03042
0.00544245 0.0155663 0.032695
0.006743 0.014436 0.036029
0.0108665 -0.0121433 0.0333703
0.008415 -0.013262 0.036908
-0.00731307 0.0181397 0.00341672
-0.010688 0.016727 0.004643
0.0150151 0.00302757 0.0377839
0.01451 0.001478 0.040861
-4.81071e-05 0.0184637 0.0210383
-0.004141 0.017986 0.022605
-0.00635586 -0.0184882 0.00313484
-0.009579 -0.017378 0.005238
-0.00651068 0.0183161 0.00236564
-0.010386 0.017026 0.000383
0.012558 0.00967249 0.035822
0.012272 0.008758 0.039215
0.014722 -0.0046025 0.0374634
0.013593 -0.005562 0.040611
-0.00460552 -0.0189559 0.00646361
-0.007854 -0.018064 0.009583
-0.00210675 -0.0186723 0.0180294
-0.005375 -0.018171 0.018567
LINES 231 693
2 4 1
2 6 2
2 12 3
2 2 4
2 14 5
2 0 6
2 20 7
2 2 8
2 18 9
2 4 10
2 22 11
2 8 12
2 26 13
2 10 14
2 24 15
2 6 16
2 36 17
2 8 18
2 28 19
2 16 20
2 34 21
2 10 22
2 40 23
2 14 24
2 30 25
2 12 26
2 50 27
2 18 28
2 44 29
2 24 30
2 60 31
2 26 32
2 64 33
2 20 34
2 48 35
2 16 36
2 38 37
2 54 38
2 38 39
2 22 40
2 46 41
2 28 42
2 52 43
2 42 44
2 72 45
2 40 46
2 90 47
2 34 48
2 80 49
2 32 50
2 50 51
2 42 52
2 76 53
2 36 54
2 68 55
2 30 56
2 66 57
2 44 58
2 86 59
2 56 60
2 70 61
2 60 62
2 94 63
2 32 64
2 78 65
2 56 66
2 108 67
2 54 68
2 96 69
2 62 70
2 106 71
2 58 72
2 102 73
2 48 74
2 100 75
2 52 76
2 120 77
2 82 78
2 88 79
2 74 80
2 84 81
2 64 82
2 124 83
2 80 84
2 114 85
2 58 86
2 112 87
2 92 88
2 88 89
2 46 90
2 90 91
2 78 92
2 160 93
2 98 94
2 132 95
2 68 96
2 134 97
2 62 98
2 98 99
2 104 100
2 138 101
2 72 102
2 144 103
2 74 104
2 104 105
2 122 106
2 106 107
2 66 108
2 140 109
2 96 110
2 154 111
2 86 112
2 156 113
2 84 114
2 152 115
2 112 116
2 164 117
2 92 118
2 166 119
2 76 120
2 150 121
2 70 122
2 158 123
2 82 124
2 142 125
2 120 126
2 126 127
2 118 128
2 182 129
2 108 130
2 184 131
2 94 132
2 180 133
2 110 134
2 134 135
2 132 136
2 186 137
2 100 138
2 148 139
2 130 140
2 140 141
2 124 142
2 174 143
2 102 144
2 178 145
2 114 146
2 172 147
2 138 148
2 190 149
2 126 150
2 170 151
2 146 152
2 228 153
2 110 154
2 196 155
2 116 156
2 204 157
2 162 158
2 212 159
2 118 160
2 200 161
2 122 162
2 202 163
2 116 164
2 198 165
2 128 166
2 206 167
2 148 168
2 194 169
2 150 170
2 218 171
2 146 172
2 220 173
2 142 174
2 214 175
2 154 176
2 176 177
2 144 178
2 224 179
2 136 180
2 226 181
2 128 182
2 188 183
2 130 184
2 216 185
2 136 186
2 186 187
2 182 188
2 188 189
2 168 190
2 230 191
2 164 192
2 192 193
2 168 194
2 194 195
2 176 196
2 196 197
2 192 198
2 198 199
2 160 200
2 200 201
2 162 202
2 208 203
2 156 204
2 210 205
2 166 206
2 206 207
2 202 208
2 208 209
2 204 210
2 210 211
2 158 212
2 212 213
2 222 214
2 214 215
2 184 216
2 216 217
2 170 218
2 218 219
2 172 220
2 220 221
2 174 222
2 222 223
2 178 224
2 224 225
2 180 226
2 226 227
2 152 228
2 228 229
2 190 230
2 230 231
CELL_DATA 231
SCALARS radius float
LOOKUP_TABLE default
0.116876
1.00417
0.122717
0.745024
0.127554
1.12046
0.132058
0.84297
0.179721
0.744064
0.136583
0.646277
0.143667
0.709729
0.186441
0.733174
0.136306
0.6904
0.179191
0.637516
0.171372
0.378991
0.16946
0.708353
0.174497
0.644799
0.151903
0.686317
0.12999
0.704021
0.138823
0.642412
0.183399
0.635621
0.179771
0.513007
0.169946
0.256043
0.22816
0.372983
0.187692
0.682221
0.131671
0.607426
0.150911
0.360938
0.230627
0.631441
0.139865
0.252236
0.232344
0.453719
0.158769
0.509779
0.199124
0.700429
0.160258
0.605435
0.157472
0.625845
0.16385
0.62356
0.131648
0.62918
0.172465
0.461826
0.175979
0.487269
0.205756
0.511728
0.180179
0.438068
0.161593
0.626546
0.137301
0.449992
0.177373
0.539828
0.191733
0.494214
0.199279
0.623942
0.187263
0.490451
0.155772
0.516585
0.144759
0.273623
0.237742
0.343159
0.304175
0.533896
0.162048
0.460535
0.179511
0.475923
0.169416
0.476885
0.220885
0.484137
0.184758
0.432015
0.190496
0.500329
0.227475
0.287324
0.261445
0.455301
0.172819
0.462742
0.188199
0.511661
0.164997
0.47923
0.169374
0.507769
0.168434
0.508776
0.143671
0.443305
0.171196
0.506066
0.188052
0.440696
0.190241
0.43363
0.236789
0.454437
0.183922
0.446364
0.227486
0.456921
0.170644
0.291293
0.27078
0.447492
0.217277
0.480428
0.194397
0.292647
0.270996
0.429124
0.223054
0.424344
0.256986
0.47368
0.232748
0.471141
0.181793
0.408687
0.244497
0.364462
0.217624
0.420533
0.199198
0.410809
0.22016
0.366135
0.222587
0.335757
0.201766
0.473091
0.220546
0.394911
0.20129
0.345906
0.1997
0.459841
0.249004
0.398418
0.233988
0.386795
0.230066
0.416281
0.204134
0.407573
0.303624
0.411141
0.250552
0.384271
0.279764
0.374347
0.274027
0.399731
0.253677
0.320321
0.282767
0.358921
0.294955
0.386503
0.291039
0.384421
0.265419
0.340557
0.288685
0.341179
0.316851
0.336526
0.310571
0.322672
0.293883
0.384405
0.252358
0.401738
0.288547
0.337439
0.312297
0.3585
0.310737
0.378365
0.311215
0.348791
0.315497
0.333472
0.305729
0.373486
0.3295
0.365002
0.329632
0.356373
0.32102
0.393735
0.288275
0.374506
0.332613
0.372709
0.3103
0.351836
0.321551
0.372602
0.300286
