# vtk DataFile Version 3.0
Tree
ASCII
DATASET POLYDATA
POINTS 4 float
0.019839 0.001786 -0.005
0.019869 0.000917 0.001569
0.0196063 0.00245661 -0.00236047
0.018119 0.008252 0.001185
LINES 3 9
2 2 1
2 0 2
2 2 3
CELL_DATA 3
SCALARS radius float
LOOKUP_TABLE default
0.495679
0.668439
0.561339
