# vtk DataFile Version 3.0
Tree
ASCII
DATASET POLYDATA
POINTS 24 float
0.019839 0.001786 -0.005
0.019869 0.000917 0.001569
0.0196063 0.00245661 -0.00236047
0.018119 0.008252 0.001185
0.0196831 0.00119442 0.00068413
0.019498 -0.00271 0.009563
0.0197692 0.00198718 -0.00420814
0.017753 -0.009047 0
0.01902 0.00469076 0.000387473
0.018287 0.007238 0.01043
0.0195163 -0.000102025 0.00760208
0.019352 0.002142 0.012707
0.0180378 0.00722565 0.000898521
0.014257 0.013894 0.002044
0.0193223 -0.00171659 0.00919272
0.018166 -0.006605 0.015182
0.0181151 -0.00593914 0.000835155
0.016742 -0.010558 0.007792
0.0175515 0.0079047 0.00607531
0.014613 0.013258 0.009224
0.0173796 -0.00798742 0.000643101
0.01356 -0.014576 0.001074
0.0192383 0.00187319 0.0116242
0.018129 0.005832 0.017735
LINES 23 69
2 4 1
2 6 2
2 12 3
2 2 4
2 14 5
2 0 6
2 20 7
2 2 8
2 18 9
2 4 10
2 22 11
2 8 12
2 12 13
2 10 14
2 14 15
2 6 16
2 16 17
2 8 18
2 18 19
2 16 20
2 20 21
2 10 22
2 22 23
CELL_DATA 23
SCALARS radius float
LOOKUP_TABLE default
0.216861
0.786432
0.251417
0.645387
0.278814
0.873414
0.283124
0.601449
0.380749
0.63712
0.302288
0.44162
0.412591
0.490038
0.457889
0.564515
0.414798
0.508444
0.424033
0.476997
0.441117
0.520414
0.483917
