# vtk DataFile Version 4.1
vtk output
ASCII
DATASET POLYDATA
POINTS 23 float
0.0476935 0.0564435 0.0134435 0.0481935 0.0564435 0.0136935 0.0484435 0.0561935 0.0139435 
0.0486935 0.0559435 0.0144435 0.0484435 0.0564435 0.0149435 0.0491935 0.0554435 0.0126935 
0.0491935 0.0559435 0.0151935 0.0491935 0.0549435 0.0111935 0.0504435 0.0536935 0.0104435 
0.0509435 0.0531935 0.0106935 0.0531935 0.0514435 0.0126935 0.0551935 0.0501935 0.0171934 
0.0551935 0.0509435 0.0174434 0.0496935 0.0551935 0.0136935 0.0506935 0.0541935 0.0131935 
0.0516935 0.0531935 0.0131935 0.0539435 0.0506935 0.0129435 0.0549435 0.0491935 0.0129435 
0.0504435 0.0551935 0.0161935 0.0519435 0.0539435 0.0166934 0.0536935 0.0526935 0.0174434 
0.0536935 0.0524435 0.0171934 0.0546935 0.0514435 0.0176934 
VERTICES 23 46
1 0 
1 1 
1 2 
1 3 
1 4 
1 5 
1 6 
1 7 
1 8 
1 9 
1 10 
1 11 
1 12 
1 13 
1 14 
1 15 
1 16 
1 17 
1 18 
1 19 
1 20 
1 21 
1 22 

POINT_DATA 23
FIELD FieldData 2
LAT 1 23 float
63 62.5 62.5 61 61 64 61 63.5 65 
65 53 39 35 62 61.5 59 53 46.5 
59 53 45.5 45.5 35 
Active 1 23 float
0 0 0 0 0 0 0 0 0 
0 0 0 0 0 0 0 0 0 
0 0 0 0 0 
