# vtk DataFile Version 4.1
vtk output
ASCII
DATASET POLYDATA
POINTS 7 float
0.0556935 0.0524435 0.0126935 0.0551935 0.0539435 0.0126935 0.0549435 0.0549435 0.0126935 
0.0546935 0.0556935 0.0124435 0.0544435 0.0559435 0.0124435 0.0541935 0.0566935 0.0121935 
0.0526935 0.0584435 0.0119435 
VERTICES 7 14
1 0 
1 1 
1 2 
1 3 
1 4 
1 5 
1 6 

POINT_DATA 7
FIELD FieldData 2
LAT 1 7 float
39 40 39 35.5 35.5 31.5 24.5 
Active 1 7 float
0 0 0 0 0 0 1 
