# vtk DataFile Version 4.1
vtk output
ASCII
DATASET POLYDATA
POINTS 104 float
0.0451935 0.0591935 0.0246934 0.0536935 0.0544435 0.0251935 0.0541935 0.0539435 0.0251935 
0.0554435 0.0524435 0.0249434 0.0546935 0.0534435 0.0251935 0.0519435 0.0559435 0.0254435 
0.0516935 0.0559435 0.0256935 0.0469435 0.0586935 0.0259435 0.0474435 0.0581935 0.0259435 
0.0524435 0.0554435 0.0256935 0.0556935 0.0529435 0.0259435 0.0556935 0.0529435 0.0264435 
0.0556935 0.0526935 0.0266935 0.0549435 0.0534435 0.0269435 0.0494435 0.0574435 0.0256935 
0.0559435 0.0516935 0.0269435 0.0559435 0.0521935 0.0269435 0.0501935 0.0571935 0.0271935 
0.0506935 0.0569435 0.0271935 0.0466935 0.0589435 0.0271935 0.0456935 0.0594435 0.0271935 
0.0479435 0.0584435 0.0271935 0.0469435 0.0586935 0.0274435 0.0484435 0.0584435 0.0271935 
0.0489435 0.0579435 0.0271935 0.0504435 0.0576935 0.0276935 0.0454435 0.0594435 0.0274435 
0.0449435 0.0596935 0.0276935 0.0426935 0.0599435 0.0251935 0.0444435 0.0594435 0.0276935 
0.0434435 0.0594435 0.0276935 0.0426935 0.0601935 0.0276935 0.0419435 0.0601935 0.0276935 
0.0411935 0.0604435 0.0271935 0.0396935 0.0604435 0.0251935 0.0391935 0.0606935 0.0254435 
0.0406935 0.0604435 0.0271935 0.0409435 0.0601935 0.0279435 0.0406935 0.0604435 0.0281935 
0.0391935 0.0606935 0.0276935 0.0434435 0.0601935 0.0329435 0.0436935 0.0599435 0.0329435 
0.0399435 0.0609435 0.0306935 0.0394435 0.0606935 0.0306935 0.0386935 0.0606935 0.0304435 
0.0396935 0.0604435 0.0324435 0.0384435 0.0606935 0.0304435 0.0384435 0.0604435 0.0304435 
0.0381935 0.0606935 0.0301935 0.0386935 0.0609435 0.0321935 0.0376935 0.0606935 0.0306935 
0.0366935 0.0609435 0.0321935 0.0369435 0.0604435 0.0324435 0.0301935 0.0601935 0.0271935 
0.0306935 0.0604435 0.0274435 0.0299435 0.0601935 0.0276935 0.0271935 0.0596935 0.0251935 
0.0301935 0.0601935 0.0284435 0.0261935 0.0594435 0.0251935 0.0304435 0.0601935 0.0289435 
0.0349435 0.0604435 0.0324435 0.0304435 0.0601935 0.0291935 0.0326935 0.0606935 0.0291935 
0.0306935 0.0601935 0.0294435 0.0309435 0.0601935 0.0296935 0.0251935 0.0591935 0.0256935 
0.0271935 0.0596935 0.0261935 0.0286935 0.0601935 0.0276935 0.0249434 0.0591935 0.0266935 
0.0314435 0.0609435 0.0306935 0.0279435 0.0599435 0.0271935 0.0309435 0.0611935 0.0311935 
0.0231934 0.0589435 0.0261935 0.0234434 0.0586935 0.0264435 0.0269435 0.0596935 0.0291935 
0.0264435 0.0596935 0.0296935 0.0209434 0.0571935 0.0266935 0.0211934 0.0571935 0.0266935 
0.0276935 0.0604435 0.0321935 0.0189434 0.0564435 0.0251935 0.0269435 0.0596935 0.0299435 
0.0261935 0.0596935 0.0306935 0.0146935 0.0536935 0.0251935 0.0144435 0.0531935 0.0251935 
0.0541935 0.0539435 0.0271935 0.0526935 0.0554435 0.0271935 0.0509435 0.0564435 0.0256935 
0.0439435 0.0596935 0.0256935 0.0411935 0.0604435 0.0299435 0.0406935 0.0606935 0.0316935 
0.0421935 0.0604435 0.0326935 0.0384435 0.0606935 0.0281935 0.0459435 0.0591935 0.0259435 
0.0436935 0.0596935 0.0256935 0.0369435 0.0606935 0.0266935 0.0369435 0.0606935 0.0259435 
0.0366935 0.0606935 0.0264435 0.0349435 0.0606935 0.0261935 0.0319435 0.0604435 0.0266935 
0.0284435 0.0596935 0.0254435 0.0284435 0.0601935 0.0284435 0.0221934 0.0579435 0.0256935 
0.0199434 0.0569435 0.0254435 0.0174434 0.0556935 0.0251935 
VERTICES 104 208
1 0 
1 1 
1 2 
1 3 
1 4 
1 5 
1 6 
1 7 
1 8 
1 9 
1 10 
1 11 
1 12 
1 13 
1 14 
1 15 
1 16 
1 17 
1 18 
1 19 
1 20 
1 21 
1 22 
1 23 
1 24 
1 25 
1 26 
1 27 
1 28 
1 29 
1 30 
1 31 
1 32 
1 33 
1 34 
1 35 
1 36 
1 37 
1 38 
1 39 
1 40 
1 41 
1 42 
1 43 
1 44 
1 45 
1 46 
1 47 
1 48 
1 49 
1 50 
1 51 
1 52 
1 53 
1 54 
1 55 
1 56 
1 57 
1 58 
1 59 
1 60 
1 61 
1 62 
1 63 
1 64 
1 65 
1 66 
1 67 
1 68 
1 69 
1 70 
1 71 
1 72 
1 73 
1 74 
1 75 
1 76 
1 77 
1 78 
1 79 
1 80 
1 81 
1 82 
1 83 
1 84 
1 85 
1 86 
1 87 
1 88 
1 89 
1 90 
1 91 
1 92 
1 93 
1 94 
1 95 
1 96 
1 97 
1 98 
1 99 
1 100 
1 101 
1 102 
1 103 

POINT_DATA 104
FIELD FieldData 2
LAT 1 104 float
47 59 55 47.5 55 52.5 52.5 50.5 50.5 
52.5 39.5 39 39 51.5 45.5 39 39 44.5 
44.5 47.5 47.5 49 49 45 45 44 46.5 
48 51.5 48 48.5 54 55 55 60 60 
55.5 55 55.5 56.5 62 61.5 58.5 59.5 59.5 
61.5 59.5 59.5 60 59.5 60 61 63 62 
62 64.5 60.5 63.5 61.5 64.5 64 64.5 64 
64.5 64.5 63.5 61.5 65.5 64.5 65 61.5 65 
62 63 65 65 62 62 64.5 65 65 
66.5 65.5 65.5 51.5 50.5 45 46.5 55.5 59.5 
62.5 56.5 46 46.5 61 60 61 59.5 61.5 
60 65.5 63.5 63 64 
Active 1 104 float
1 0 0 0 0 0 0 0 0 
0 0 0 0 0 0 0 0 0 
0 0 0 0 0 0 0 1 0 
1 0 0 0 0 0 0 0 0 
0 1 0 0 1 0 0 0 1 
1 0 1 0 0 0 0 1 0 
0 0 0 0 1 0 1 0 0 
1 0 0 0 0 0 0 0 1 
1 1 0 0 0 0 1 0 0 
0 1 0 0 0 0 0 0 0 
0 0 0 0 0 0 0 0 0 
0 0 0 0 0 
