# vtk DataFile Version 3.0
Tree
ASCII
DATASET POLYDATA
POINTS 96 float
0 0.0287941 0
-0.0126607 -0.0251748 0
0.00423547 0.00213237 0
0.0259787 -0.0201673 0
-0.00208886 0.02004 0
-0.0230888 0.017684 0
-0.000626657 0.0261679 0
0.0234609 0.0278788 0
-0.0113544 0.0154728 0
-0.0277715 -0.00803917 0
0.00440476 0.0102646 0
0.0248694 0.00521801 0
0.000584411 -0.0118647 0
0.00567841 -0.024451 0
-0.0213202 -0.0047847 0
-0.018803 -0.0165692 0
0.0163989 0.0241142 0
0.025768 0.016389 0
-0.0213376 -0.0122665 0
-0.0277377 -0.0287649 0
-0.000187997 0.0280062 0
-0.0109378 0.0282299 0
0.00143954 -0.00384173 0
-0.00660784 -0.00554711 0
-0.0170218 0.00741038 0
-0.0269212 0.00852779 0
0.0159869 -0.0152911 0
0.0151431 -0.0282376 0
0.014371 -0.00999766 0
0.0271084 -0.0110833 0
-0.013508 0.0124091 0
-0.00722621 0.00214039 0
0.0203776 0.00404537 0
0.0263683 -0.00329567 0
0.0117956 0.00856903 0
0.0172645 0.0137013 0
-0.0204826 0.0190241 0
-0.0271918 0.024997 0
0.0242807 0.0167011 0
0.028487 0.010882 0
0.0227695 -0.0205966 0
0.0287911 -0.0286667 0
-0.0043784 -0.00657035 0
-0.0101418 -0.0116378 0
0.00675429 0.0243065 0
0.00953057 0.0180069 0
-0.00509265 -0.0216583 0
-0.00378697 -0.0259925 0
-0.02276 -0.0217607 0
-0.0191033 -0.0273189 0
-0.0206155 7.34199e-05 0
-0.0270325 -0.000571521 0
0.0113355 -0.00483929 0
0.0180277 -0.0034772 0
0.000840949 -0.0094578 0
0.00760505 -0.0139596 0
-0.0243443 0.0201667 0
-0.0285237 0.0179851 0
-0.0226881 -0.015204 0
-0.0282408 -0.0149384 0
-0.0208269 -0.00138402 0
-0.0148962 -0.00497277 0
0.00245667 0.0131973 0
-0.00190827 0.00677609 0
-0.00399943 -0.0176114 0
-0.0114766 -0.0172359 0
0.00855223 -0.00107001 0
0.0132622 0.000671196 0
0.00581067 -0.0186696 0
0.0095106 -0.0193764 0
-0.00560977 0.0183045 0
-0.00983804 0.0219098 0
-0.0216729 0.0201879 0
-0.0215373 0.0251335 0
0.0176163 0.00639025 0
0.0221089 0.00948534 0
-0.0102381 0.0282007 0
-0.0176531 0.0283175 0
-0.0204743 -0.00887842 0
-0.0152242 -0.0110457 0
0.0205302 0.0213921 0
0.026204 0.0232034 0
-0.00771607 -0.0244264 0
-0.00797511 -0.0285304 0
0.0170112 -0.024156 0
0.0208507 -0.0284566 0
-0.0173585 0.0169539 0
-0.0209878 0.0131155 0
-0.0186749 0.00403538 0
-0.0135544 -0.00121041 0
-0.0131326 0.0269379 0
-0.0142197 0.0235904 0
0.0158999 -0.0220879 0
0.0110487 -0.0264806 0
-0.0234145 -0.0175938 0
-0.027738 -0.0196292 0
LINES 95 285
2 82 1
2 10 2
2 40 3
2 6 4
2 36 5
2 20 6
2 16 7
2 70 8
2 14 9
2 62 10
2 32 11
2 54 12
2 68 13
2 60 14
2 18 15
2 44 16
2 38 17
2 78 18
2 48 19
2 0 20
2 76 21
2 2 22
2 42 23
2 30 24
2 24 25
2 28 26
2 84 27
2 52 28
2 28 29
2 8 30
2 30 31
2 74 32
2 32 33
2 10 34
2 34 35
2 86 36
2 56 37
2 80 38
2 38 39
2 26 40
2 40 41
2 22 42
2 42 43
2 6 44
2 44 45
2 64 46
2 46 47
2 94 48
2 48 49
2 88 50
2 50 51
2 66 52
2 52 53
2 22 54
2 54 55
2 72 56
2 56 57
2 18 58
2 58 59
2 50 60
2 60 61
2 4 62
2 62 63
2 12 64
2 64 65
2 2 66
2 66 67
2 12 68
2 68 69
2 4 70
2 70 71
2 36 72
2 72 73
2 34 74
2 74 75
2 20 76
2 90 77
2 14 78
2 78 79
2 16 80
2 80 81
2 46 82
2 82 83
2 92 84
2 84 85
2 8 86
2 86 87
2 24 88
2 88 89
2 76 90
2 90 91
2 26 92
2 92 93
2 58 94
2 94 95
CELL_DATA 95
SCALARS radius float
LOOKUP_TABLE default
0.376945
0.862367
0.310112
1.09914
0.242527
1.13596
0.292433
0.813413
0.305739
0.912874
0.300833
0.627565
0.353094
0.666936
0.306621
0.496142
0.256344
0.621881
0.423108
1.1501
0.16755
0.690076
0.253142
0.732143
0.295325
0.616639
0.345893
0.650404
0.343877
0.748111
0.29717
0.419295
0.359573
0.492436
0.280173
0.467203
0.323906
0.413748
0.377938
0.463638
0.411815
0.378862
0.336666
0.516721
0.251122
0.51136
0.323666
0.517097
0.396895
0.700934
0.283246
0.667219
0.279762
0.649694
0.300287
0.399627
0.310165
0.595969
0.331119
0.685165
0.292383
0.919451
0.25489
0.555286
0.334726
0.678753
0.25025
0.423473
0.317211
0.819614
0.231468
0.444316
0.288025
0.460131
0.287258
0.381241
0.304184
0.644792
0.302108
0.45966
0.297354
0.463861
0.358948
0.450304
0.368223
0.492545
0.259681
0.715762
0.281557
0.370134
0.282571
0.512751
0.35169
0.55974
0.33354
