# vtk DataFile Version 3.0
Tree
ASCII
DATASET POLYDATA
POINTS 26 float
0 0.0287941 0
-0.0126607 -0.0251748 0
0.00423547 0.00213237 0
0.0259787 -0.0201673 0
-0.00208886 0.02004 0
-0.0230888 0.017684 0
-0.000626657 0.0261679 0
0.0234609 0.0278788 0
-0.0113544 0.0154728 0
-0.0277715 -0.00803917 0
0.00440476 0.0102646 0
0.0248694 0.00521801 0
0.000584411 -0.0118647 0
0.00567841 -0.024451 0
-0.0213202 -0.0047847 0
-0.018803 -0.0165692 0
0.0163989 0.0241142 0
0.025768 0.016389 0
-0.0213376 -0.0122665 0
-0.0277377 -0.0287649 0
-0.000187997 0.0280062 0
-0.0109378 0.0282299 0
0.00143954 -0.00384173 0
-0.00660784 -0.00554711 0
-0.0170218 0.00741038 0
-0.0269212 0.00852779 0
LINES 25 75
2 12 1
2 10 2
2 2 3
2 6 4
2 8 5
2 20 6
2 16 7
2 4 8
2 14 9
2 4 10
2 10 11
2 22 12
2 12 13
2 24 14
2 18 15
2 6 16
2 16 17
2 14 18
2 18 19
2 0 20
2 20 21
2 2 22
2 22 23
2 8 24
2 24 25
CELL_DATA 25
SCALARS radius float
LOOKUP_TABLE default
0.547307
0.802953
0.538891
1.04904
0.405846
1.09942
0.419256
0.812145
0.436616
0.852143
0.465841
0.663806
0.504697
0.734783
0.443945
0.558756
0.465321
0.679313
0.609106
1.11235
0.361959
0.712165
0.409553
0.77685
0.416233
