# vtk DataFile Version 3.0
Tree
ASCII
DATASET POLYDATA
POINTS 118 float
0 0.0287941 0
-0.0126607 -0.0251748 0
0.00423547 0.00213237 0
0.0259787 -0.0201673 0
-0.00208886 0.02004 0
-0.0230888 0.017684 0
-0.000626657 0.0261679 0
0.0234609 0.0278788 0
-0.0113544 0.0154728 0
-0.0277715 -0.00803917 0
0.00440476 0.0102646 0
0.0248694 0.00521801 0
0.000584411 -0.0118647 0
0.00567841 -0.024451 0
-0.0213202 -0.0047847 0
-0.018803 -0.0165692 0
0.0163989 0.0241142 0
0.025768 0.016389 0
-0.0213376 -0.0122665 0
-0.0277377 -0.0287649 0
-0.000187997 0.0280062 0
-0.0109378 0.0282299 0
0.00143954 -0.00384173 0
-0.00660784 -0.00554711 0
-0.0170218 0.00741038 0
-0.0269212 0.00852779 0
0.0159869 -0.0152911 0
0.0151431 -0.0282376 0
0.014371 -0.00999766 0
0.0271084 -0.0110833 0
-0.013508 0.0124091 0
-0.00722621 0.00214039 0
0.0203776 0.00404537 0
0.0263683 -0.00329567 0
0.0117956 0.00856903 0
0.0172645 0.0137013 0
-0.0204826 0.0190241 0
-0.0271918 0.024997 0
0.0242807 0.0167011 0
0.028487 0.010882 0
0.0227695 -0.0205966 0
0.0287911 -0.0286667 0
-0.0043784 -0.00657035 0
-0.0101418 -0.0116378 0
0.00675429 0.0243065 0
0.00953057 0.0180069 0
-0.00509265 -0.0216583 0
-0.00378697 -0.0259925 0
-0.02276 -0.0217607 0
-0.0191033 -0.0273189 0
-0.0206155 7.34199e-05 0
-0.0270325 -0.000571521 0
0.0113355 -0.00483929 0
0.0180277 -0.0034772 0
0.000840949 -0.0094578 0
0.00760505 -0.0139596 0
-0.0243443 0.0201667 0
-0.0285237 0.0179851 0
-0.0226881 -0.015204 0
-0.0282408 -0.0149384 0
-0.0208269 -0.00138402 0
-0.0148962 -0.00497277 0
0.00245667 0.0131973 0
-0.00190827 0.00677609 0
-0.00399943 -0.0176114 0
-0.0114766 -0.0172359 0
0.00855223 -0.00107001 0
0.0132622 0.000671196 0
0.00581067 -0.0186696 0
0.0095106 -0.0193764 0
-0.00560977 0.0183045 0
-0.00983804 0.0219098 0
-0.0216729 0.0201879 0
-0.0215373 0.0251335 0
0.0176163 0.00639025 0
0.0221089 0.00948534 0
-0.0102381 0.0282007 0
-0.0176531 0.0283175 0
-0.0204743 -0.00887842 0
-0.0152242 -0.0110457 0
0.0205302 0.0213921 0
0.026204 0.0232034 0
-0.00771607 -0.0244264 0
-0.00797511 -0.0285304 0
0.0170112 -0.024156 0
0.0208507 -0.0284566 0
-0.0173585 0.0169539 0
-0.0209878 0.0131155 0
-0.0186749 0.00403538 0
-0.0135544 -0.00121041 0
-0.0131326 0.0269379 0
-0.0142197 0.0235904 0
0.0158999 -0.0220879 0
0.0110487 -0.0264806 0
-0.0234145 -0.0175938 0
-0.027738 -0.0196292 0
-0.0242123 0.00685917 0
-0.0285602 0.00384548 0
0.00227831 -0.0020495 0
0.00632205 -0.00660255 0
0.0120475 0.0232967 0
0.0149406 0.0176844 0
0.0239215 -0.0127454 0
0.0258893 -0.0155836 0
0.0188426 -0.0105564 0
0.0224349 -0.00711897 0
-0.026774 0.0177974 0
-0.0282454 0.0141984 0
-0.0037439 -0.0239056 0
0.0012771 -0.0268746 0
0.0217366 -0.00854664 0
0.0284803 -0.00675891 0
-0.00779273 0.0172284 0
-0.00697991 0.0127395 0
0.0021781 0.0254606 0
0.00315772 0.0211699 0
0.0030411 0.0123175 0
0.00669114 0.0147526 0
LINES 117 351
2 82 1
2 10 2
2 40 3
2 6 4
2 36 5
2 20 6
2 16 7
2 112 8
2 14 9
2 116 10
2 32 11
2 54 12
2 68 13
2 60 14
2 18 15
2 100 16
2 38 17
2 78 18
2 48 19
2 0 20
2 76 21
2 98 22
2 42 23
2 30 24
2 96 25
2 28 26
2 84 27
2 52 28
2 102 29
2 8 30
2 30 31
2 74 32
2 32 33
2 10 34
2 34 35
2 86 36
2 56 37
2 80 38
2 38 39
2 26 40
2 40 41
2 22 42
2 42 43
2 114 44
2 44 45
2 64 46
2 108 47
2 94 48
2 48 49
2 88 50
2 50 51
2 66 52
2 52 53
2 22 54
2 54 55
2 72 56
2 106 57
2 18 58
2 58 59
2 50 60
2 60 61
2 4 62
2 62 63
2 12 64
2 64 65
2 2 66
2 66 67
2 12 68
2 68 69
2 4 70
2 70 71
2 36 72
2 72 73
2 34 74
2 74 75
2 20 76
2 90 77
2 14 78
2 78 79
2 16 80
2 80 81
2 46 82
2 82 83
2 92 84
2 84 85
2 8 86
2 86 87
2 24 88
2 88 89
2 76 90
2 90 91
2 26 92
2 92 93
2 58 94
2 94 95
2 24 96
2 96 97
2 2 98
2 98 99
2 44 100
2 100 101
2 104 102
2 102 103
2 28 104
2 110 105
2 56 106
2 106 107
2 46 108
2 108 109
2 104 110
2 110 111
2 70 112
2 112 113
2 6 114
2 114 115
2 62 116
2 116 117
CELL_DATA 117
SCALARS radius float
LOOKUP_TABLE default
0.350601
0.877074
0.293687
1.09842
0.226832
1.13687
0.279454
0.796168
0.290505
0.919292
0.285619
0.623415
0.333805
0.633705
0.291344
0.474121
0.244967
0.590895
0.402026
1.14898
0.159128
0.677941
0.240012
0.710482
0.261513
0.583979
0.327573
0.681059
0.314925
0.725043
0.282334
0.398091
0.341389
0.467532
0.266004
0.477445
0.29738
0.395384
0.361163
0.439082
0.390004
0.359211
0.319203
0.513668
0.239038
0.527852
0.276412
0.491332
0.377119
0.666009
0.269133
0.694164
0.264902
0.642506
0.28417
0.427079
0.26375
0.566274
0.314621
0.651026
0.277815
0.928488
0.242054
0.562654
0.314309
0.703266
0.23711
0.400339
0.299883
0.806631
0.219895
0.459729
0.268083
0.436861
0.272731
0.362077
0.288894
0.612664
0.287055
0.439258
0.284156
0.431442
0.333862
0.426454
0.34872
0.498034
0.244941
0.680098
0.267528
0.351528
0.268367
0.485593
0.333063
0.531851
0.316921
0.353229
0.296962
0.688853
0.248193
0.495799
0.248242
0.39482
0.311797
0.488746
0.239214
0.372289
0.321565
0.405678
0.357382
0.380761
0.346256
0.801147
0.212
0.524256
0.204523
0.922972
0.21079
