# vtk DataFile Version 3.0
Tree
ASCII
DATASET POLYDATA
POINTS 192 float
0 0.0287941 0
-0.0126607 -0.0251748 0
0.00423547 0.00213237 0
0.0259787 -0.0201673 0
-0.00208886 0.02004 0
-0.0230888 0.017684 0
-0.000626657 0.0261679 0
0.0234609 0.0278788 0
-0.0113544 0.0154728 0
-0.0277715 -0.00803917 0
0.00440476 0.0102646 0
0.0248694 0.00521801 0
0.000584411 -0.0118647 0
0.00567841 -0.024451 0
-0.0213202 -0.0047847 0
-0.018803 -0.0165692 0
0.0163989 0.0241142 0
0.025768 0.016389 0
-0.0213376 -0.0122665 0
-0.0277377 -0.0287649 0
-0.000187997 0.0280062 0
-0.0109378 0.0282299 0
0.00143954 -0.00384173 0
-0.00660784 -0.00554711 0
-0.0170218 0.00741038 0
-0.0269212 0.00852779 0
0.0159869 -0.0152911 0
0.0151431 -0.0282376 0
0.014371 -0.00999766 0
0.0271084 -0.0110833 0
-0.013508 0.0124091 0
-0.00722621 0.00214039 0
0.0203776 0.00404537 0
0.0263683 -0.00329567 0
0.0117956 0.00856903 0
0.0172645 0.0137013 0
-0.0204826 0.0190241 0
-0.0271918 0.024997 0
0.0242807 0.0167011 0
0.028487 0.010882 0
0.0227695 -0.0205966 0
0.0287911 -0.0286667 0
-0.0043784 -0.00657035 0
-0.0101418 -0.0116378 0
0.00675429 0.0243065 0
0.00953057 0.0180069 0
-0.00509265 -0.0216583 0
-0.00378697 -0.0259925 0
-0.02276 -0.0217607 0
-0.0191033 -0.0273189 0
-0.0206155 7.34199e-05 0
-0.0270325 -0.000571521 0
0.0113355 -0.00483929 0
0.0180277 -0.0034772 0
0.000840949 -0.0094578 0
0.00760505 -0.0139596 0
-0.0243443 0.0201667 0
-0.0285237 0.0179851 0
-0.0226881 -0.015204 0
-0.0282408 -0.0149384 0
-0.0208269 -0.00138402 0
-0.0148962 -0.00497277 0
0.00245667 0.0131973 0
-0.00190827 0.00677609 0
-0.00399943 -0.0176114 0
-0.0114766 -0.0172359 0
0.00855223 -0.00107001 0
0.0132622 0.000671196 0
0.00581067 -0.0186696 0
0.0095106 -0.0193764 0
-0.00560977 0.0183045 0
-0.00983804 0.0219098 0
-0.0216729 0.0201879 0
-0.0215373 0.0251335 0
0.0176163 0.00639025 0
0.0221089 0.00948534 0
-0.0102381 0.0282007 0
-0.0176531 0.0283175 0
-0.0204743 -0.00887842 0
-0.0152242 -0.0110457 0
0.0205302 0.0213921 0
0.026204 0.0232034 0
-0.00771607 -0.0244264 0
-0.00797511 -0.0285304 0
0.0170112 -0.024156 0
0.0208507 -0.0284566 0
-0.0173585 0.0169539 0
-0.0209878 0.0131155 0
-0.0186749 0.00403538 0
-0.0135544 -0.00121041 0
-0.0131326 0.0269379 0
-0.0142197 0.0235904 0
0.0158999 -0.0220879 0
0.0110487 -0.0264806 0
-0.0234145 -0.0175938 0
-0.027738 -0.0196292 0
-0.0242123 0.00685917 0
-0.0285602 0.00384548 0
0.00227831 -0.0020495 0
0.00632205 -0.00660255 0
0.0120475 0.0232967 0
0.0149406 0.0176844 0
0.0239215 -0.0127454 0
0.0258893 -0.0155836 0
0.0188426 -0.0105564 0
0.0224349 -0.00711897 0
-0.026774 0.0177974 0
-0.0282454 0.0141984 0
-0.0037439 -0.0239056 0
0.0012771 -0.0268746 0
0.0217366 -0.00854664 0
0.0284803 -0.00675891 0
-0.00779273 0.0172284 0
-0.00697991 0.0127395 0
0.0021781 0.0254606 0
0.00315772 0.0211699 0
0.0030411 0.0123175 0
0.00669114 0.0147526 0
0.00285427 -0.0159328 0
0.000745614 -0.020022 0
0.00432689 0.0065238 0
0.00919578 0.00479841 0
-0.00553078 0.0275931 0
-0.00748248 0.0244581 0
-0.0223888 -0.0199538 0
-0.0180983 -0.0216528 0
0.00787918 0.0101093 0
0.0107449 0.0133937 0
0.00538143 0.0246527 0
0.00869716 0.0279096 0
0.00349175 0.000543262 0
-0.00310192 0.00149281 0
-0.0225509 0.024178 0
-0.0249636 0.0287863 0
0.0214537 0.0193855 0
0.0198931 0.0161063 0
-0.00983411 0.00350659 0
-0.0102946 0.000258906 0
0.0148558 -0.0115857 0
0.0114218 -0.0138971 0
-0.0100641 0.000741488 0
-0.0101293 -0.00265714 0
-0.000790742 -0.0135887 0
-0.00527326 -0.0123024 0
0.0240669 0.00544539 0
0.0284202 0.00770529 0
-0.0106939 0.00708764 0
-0.00679095 0.00682925 0
0.00598681 -0.0240355 0
0.00666647 -0.0279224 0
0.00646835 -0.0211205 0
0.010068 -0.0227612 0
0.025833 -0.0231 0
0.0285493 -0.0226199 0
0.0122462 -0.0063868 0
0.00895143 -0.00930002 0
0.0230935 0.027165 0
0.0282021 0.0285562 0
-0.0145966 0.0162726 0
-0.0151211 0.0200848 0
-0.0264057 -0.00815461 0
-0.0284233 -0.011241 0
-0.0159677 0.00890999 0
-0.0138993 0.00489527 0
-0.000666625 0.0103464 0
-0.00370946 0.0103542 0
-0.0195454 0.018403 0
-0.01881 0.0223351 0
0.0242515 0.0214317 0
0.0273362 0.0194635 0
-0.018706 -0.0154967 0
-0.0155597 -0.0176562 0
-0.0122472 -0.0250844 0
-0.0160322 -0.0256188 0
0.0153281 0.00670054 0
0.015824 0.00315964 0
0.0243076 0.00537718 0
0.0282255 0.00288108 0
0.022423 -0.0125903 0
0.0230131 -0.0158591 0
-0.011321 -0.0244054 0
-0.0143701 -0.0215033 0
-0.00136196 -0.00461098 0
-0.00402628 -0.00251483 0
-0.0144427 0.0110794 0
-0.0176397 0.0121412 0
-0.0239507 -0.00119145 0
-0.0251932 -0.00370688 0
0.0143973 0.0237381 0
0.0149737 0.0279686 0
0.0160677 0.00375389 0
0.0174026 0.000223522 0
LINES 191 573
2 172 1
2 120 2
2 40 3
2 6 4
2 36 5
2 20 6
2 156 7
2 112 8
2 160 9
2 116 10
2 176 11
2 54 12
2 148 13
2 60 14
2 170 15
2 188 16
2 38 17
2 78 18
2 48 19
2 0 20
2 76 21
2 98 22
2 42 23
2 162 24
2 96 25
2 138 26
2 84 27
2 154 28
2 102 29
2 8 30
2 136 31
2 74 32
2 32 33
2 126 34
2 34 35
2 166 36
2 56 37
2 134 38
2 38 39
2 26 40
2 152 41
2 182 42
2 42 43
2 128 44
2 44 45
2 64 46
2 108 47
2 124 48
2 48 49
2 88 50
2 186 51
2 66 52
2 52 53
2 22 54
2 54 55
2 72 56
2 106 57
2 18 58
2 58 59
2 50 60
2 60 61
2 4 62
2 164 63
2 142 64
2 64 65
2 2 66
2 66 67
2 118 68
2 68 69
2 4 70
2 70 71
2 36 72
2 132 73
2 174 74
2 74 75
2 122 76
2 90 77
2 14 78
2 78 79
2 16 80
2 168 81
2 46 82
2 82 83
2 92 84
2 84 85
2 158 86
2 86 87
2 24 88
2 88 89
2 76 90
2 90 91
2 26 92
2 92 93
2 58 94
2 94 95
2 24 96
2 96 97
2 130 98
2 98 99
2 44 100
2 100 101
2 178 102
2 102 103
2 28 104
2 110 105
2 56 106
2 106 107
2 46 108
2 108 109
2 104 110
2 110 111
2 70 112
2 112 113
2 6 114
2 114 115
2 62 116
2 116 117
2 12 118
2 118 119
2 10 120
2 120 121
2 20 122
2 122 123
2 94 124
2 124 125
2 10 126
2 126 127
2 114 128
2 128 129
2 2 130
2 130 131
2 72 132
2 132 133
2 80 134
2 134 135
2 146 136
2 140 137
2 28 138
2 138 139
2 136 140
2 140 141
2 12 142
2 142 143
2 32 144
2 144 145
2 30 146
2 146 147
2 150 148
2 148 149
2 68 150
2 150 151
2 40 152
2 152 153
2 52 154
2 154 155
2 16 156
2 156 157
2 8 158
2 158 159
2 14 160
2 160 161
2 184 162
2 162 163
2 62 164
2 164 165
2 86 166
2 166 167
2 80 168
2 168 169
2 18 170
2 170 171
2 180 172
2 172 173
2 34 174
2 190 175
2 144 176
2 176 177
2 104 178
2 178 179
2 82 180
2 180 181
2 22 182
2 182 183
2 30 184
2 184 185
2 50 186
2 186 187
2 100 188
2 188 189
2 174 190
2 190 191
CELL_DATA 191
SCALARS radius float
LOOKUP_TABLE default
0.199331
0.868666
0.257989
1.10181
0.199014
1.14341
0.182478
0.794867
0.221824
0.927232
0.173351
0.650612
0.2021
0.617086
0.217294
0.488327
0.214984
0.569842
0.354528
1.1535
0.141614
0.692597
0.213188
0.682795
0.231443
0.545124
0.290441
0.646526
0.278713
0.727225
0.228409
0.429701
0.293368
0.501796
0.234312
0.45004
0.260004
0.346991
0.316958
0.434761
0.348336
0.319065
0.283528
0.52494
0.21082
0.526488
0.237498
0.433283
0.332564
0.649934
0.234752
0.664083
0.234639
0.662675
0.249892
0.373402
0.230601
0.529291
0.275938
0.62973
0.2452
0.936528
0.212404
0.550016
0.273472
0.670994
0.20983
0.436853
0.251312
0.802169
0.194583
0.436675
0.203802
0.452739
0.237864
0.322226
0.257098
0.585913
0.252516
0.440312
0.238895
0.469644
0.277085
0.378114
0.309191
0.479975
0.216026
0.660213
0.236528
0.312838
0.23883
0.430549
0.295309
0.503008
0.277764
0.312613
0.262816
0.699835
0.219154
0.513352
0.218174
0.349421
0.275944
0.460064
0.211814
0.325498
0.28115
0.348566
0.307069
0.337148
0.306595
0.798334
0.187585
0.53978
0.180764
0.929742
0.186544
0.459774
0.239997
0.872168
0.199662
0.341791
0.186355
0.473024
0.29043
0.511415
0.194927
0.532936
0.188624
0.706988
0.219789
0.314827
0.283308
0.37867
0.2322
0.347632
0.181865
0.557064
0.22158
0.311049
0.288767
0.562742
0.227788
0.378192
0.289269
0.373055
0.214777
0.35865
0.335838
0.407157
0.277478
0.402085
0.283309
0.654171
0.213275
0.314416
0.292425
0.489946
0.191616
0.323462
0.284089
0.688572
0.201235
0.260739
0.20119
0.464921
0.210625
0.314366
0.259295
0.332497
0.298133
0.366381
0.345552
0.484153
0.16303
0.310334
0.291141
0.389417
0.254021
0.435001
0.321181
0.345454
0.206022
0.692907
0.183758
0.291682
0.228171
0.499865
0.203688
0.27452
0.253834
