# vtk DataFile Version 3.0
Tree
ASCII
DATASET POLYDATA
POINTS 58 float
0 0.0287941 0
-0.0126607 -0.0251748 0
0.00423547 0.00213237 0
0.0259787 -0.0201673 0
-0.00208886 0.02004 0
-0.0230888 0.017684 0
-0.000626657 0.0261679 0
0.0234609 0.0278788 0
-0.0113544 0.0154728 0
-0.0277715 -0.00803917 0
0.00440476 0.0102646 0
0.0248694 0.00521801 0
0.000584411 -0.0118647 0
0.00567841 -0.024451 0
-0.0213202 -0.0047847 0
-0.018803 -0.0165692 0
0.0163989 0.0241142 0
0.025768 0.016389 0
-0.0213376 -0.0122665 0
-0.0277377 -0.0287649 0
-0.000187997 0.0280062 0
-0.0109378 0.0282299 0
0.00143954 -0.00384173 0
-0.00660784 -0.00554711 0
-0.0170218 0.00741038 0
-0.0269212 0.00852779 0
0.0159869 -0.0152911 0
0.0151431 -0.0282376 0
0.014371 -0.00999766 0
0.0271084 -0.0110833 0
-0.013508 0.0124091 0
-0.00722621 0.00214039 0
0.0203776 0.00404537 0
0.0263683 -0.00329567 0
0.0117956 0.00856903 0
0.0172645 0.0137013 0
-0.0204826 0.0190241 0
-0.0271918 0.024997 0
0.0242807 0.0167011 0
0.028487 0.010882 0
0.0227695 -0.0205966 0
0.0287911 -0.0286667 0
-0.0043784 -0.00657035 0
-0.0101418 -0.0116378 0
0.00675429 0.0243065 0
0.00953057 0.0180069 0
-0.00509265 -0.0216583 0
-0.00378697 -0.0259925 0
-0.02276 -0.0217607 0
-0.0191033 -0.0273189 0
-0.0206155 7.34199e-05 0
-0.0270325 -0.000571521 0
0.0113355 -0.00483929 0
0.0180277 -0.0034772 0
0.000840949 -0.0094578 0
0.00760505 -0.0139596 0
-0.0243443 0.0201667 0
-0.0285237 0.0179851 0
LINES 57 171
2 46 1
2 10 2
2 40 3
2 6 4
2 36 5
2 20 6
2 16 7
2 4 8
2 14 9
2 4 10
2 32 11
2 54 12
2 12 13
2 50 14
2 18 15
2 44 16
2 38 17
2 14 18
2 48 19
2 0 20
2 20 21
2 2 22
2 42 23
2 30 24
2 24 25
2 28 26
2 26 27
2 52 28
2 28 29
2 8 30
2 30 31
2 34 32
2 32 33
2 10 34
2 34 35
2 8 36
2 56 37
2 16 38
2 38 39
2 26 40
2 40 41
2 22 42
2 42 43
2 6 44
2 44 45
2 12 46
2 46 47
2 18 48
2 48 49
2 24 50
2 50 51
2 2 52
2 52 53
2 22 54
2 54 55
2 36 56
2 56 57
CELL_DATA 57
SCALARS radius float
LOOKUP_TABLE default
0.445754
0.868426
0.357343
1.09307
0.278188
1.13747
0.333916
0.799659
0.35015
0.926245
0.340894
0.594844
0.403978
0.65763
0.350356
0.522196
0.292445
0.622722
0.477288
1.14412
0.296087
0.693505
0.289913
0.709154
0.336874
0.610481
0.421774
0.66097
0.394179
0.733951
0.338349
0.475132
0.407457
0.518898
0.318976
0.487668
0.369116
0.472016
0.431163
0.534251
0.474535
0.433895
0.385569
0.549281
0.285726
0.524816
0.382543
0.583313
0.447719
0.682851
0.32394
0.684984
0.319554
0.631513
0.345866
0.455406
0.353456
