# vtk DataFile Version 3.0
Tree
ASCII
DATASET POLYDATA
POINTS 88 float
0 0.0287941 0
-0.0126607 -0.0251748 0
0.00423547 0.00213237 0
0.0259787 -0.0201673 0
-0.00208886 0.02004 0
-0.0230888 0.017684 0
-0.000626657 0.0261679 0
0.0234609 0.0278788 0
-0.0113544 0.0154728 0
-0.0277715 -0.00803917 0
0.00440476 0.0102646 0
0.0248694 0.00521801 0
0.000584411 -0.0118647 0
0.00567841 -0.024451 0
-0.0213202 -0.0047847 0
-0.018803 -0.0165692 0
0.0163989 0.0241142 0
0.025768 0.016389 0
-0.0213376 -0.0122665 0
-0.0277377 -0.0287649 0
-0.000187997 0.0280062 0
-0.0109378 0.0282299 0
0.00143954 -0.00384173 0
-0.00660784 -0.00554711 0
-0.0170218 0.00741038 0
-0.0269212 0.00852779 0
0.0159869 -0.0152911 0
0.0151431 -0.0282376 0
0.014371 -0.00999766 0
0.0271084 -0.0110833 0
-0.013508 0.0124091 0
-0.00722621 0.00214039 0
0.0203776 0.00404537 0
0.0263683 -0.00329567 0
0.0117956 0.00856903 0
0.0172645 0.0137013 0
-0.0204826 0.0190241 0
-0.0271918 0.024997 0
0.0242807 0.0167011 0
0.028487 0.010882 0
0.0227695 -0.0205966 0
0.0287911 -0.0286667 0
-0.0043784 -0.00657035 0
-0.0101418 -0.0116378 0
0.00675429 0.0243065 0
0.00953057 0.0180069 0
-0.00509265 -0.0216583 0
-0.00378697 -0.0259925 0
-0.02276 -0.0217607 0
-0.0191033 -0.0273189 0
-0.0206155 7.34199e-05 0
-0.0270325 -0.000571521 0
0.0113355 -0.00483929 0
0.0180277 -0.0034772 0
0.000840949 -0.0094578 0
0.00760505 -0.0139596 0
-0.0243443 0.0201667 0
-0.0285237 0.0179851 0
-0.0226881 -0.015204 0
-0.0282408 -0.0149384 0
-0.0208269 -0.00138402 0
-0.0148962 -0.00497277 0
0.00245667 0.0131973 0
-0.00190827 0.00677609 0
-0.00399943 -0.0176114 0
-0.0114766 -0.0172359 0
0.00855223 -0.00107001 0
0.0132622 0.000671196 0
0.00581067 -0.0186696 0
0.0095106 -0.0193764 0
-0.00560977 0.0183045 0
-0.00983804 0.0219098 0
-0.0216729 0.0201879 0
-0.0215373 0.0251335 0
0.0176163 0.00639025 0
0.0221089 0.00948534 0
-0.0102381 0.0282007 0
-0.0176531 0.0283175 0
-0.0204743 -0.00887842 0
-0.0152242 -0.0110457 0
0.0205302 0.0213921 0
0.026204 0.0232034 0
-0.00771607 -0.0244264 0
-0.00797511 -0.0285304 0
0.0170112 -0.024156 0
0.0208507 -0.0284566 0
-0.0173585 0.0169539 0
-0.0209878 0.0131155 0
LINES 87 261
2 82 1
2 10 2
2 40 3
2 6 4
2 36 5
2 20 6
2 16 7
2 70 8
2 14 9
2 62 10
2 32 11
2 54 12
2 68 13
2 60 14
2 18 15
2 44 16
2 38 17
2 78 18
2 48 19
2 0 20
2 76 21
2 2 22
2 42 23
2 30 24
2 24 25
2 28 26
2 84 27
2 52 28
2 28 29
2 8 30
2 30 31
2 74 32
2 32 33
2 10 34
2 34 35
2 86 36
2 56 37
2 80 38
2 38 39
2 26 40
2 40 41
2 22 42
2 42 43
2 6 44
2 44 45
2 64 46
2 46 47
2 58 48
2 48 49
2 24 50
2 50 51
2 66 52
2 52 53
2 22 54
2 54 55
2 72 56
2 56 57
2 18 58
2 58 59
2 50 60
2 60 61
2 4 62
2 62 63
2 12 64
2 64 65
2 2 66
2 66 67
2 12 68
2 68 69
2 4 70
2 70 71
2 36 72
2 72 73
2 34 74
2 74 75
2 20 76
2 76 77
2 14 78
2 78 79
2 16 80
2 80 81
2 46 82
2 82 83
2 26 84
2 84 85
2 8 86
2 86 87
CELL_DATA 87
SCALARS radius float
LOOKUP_TABLE default
0.385926
0.865519
0.319293
1.09783
0.248282
1.13715
0.298895
0.802008
0.314181
0.919046
0.307787
0.642516
0.361506
0.654353
0.315749
0.507104
0.262008
0.602882
0.43288
1.14742
0.180222
0.706516
0.259173
0.711035
0.30259
0.595335
0.359156
0.634251
0.353415
0.729152
0.304323
0.428989
0.367886
0.50382
0.28665
0.478291
0.331593
0.42289
0.386288
0.477363
0.424006
0.387888
0.344686
0.528138
0.25667
0.523542
0.331377
0.52904
0.406062
0.692278
0.290646
0.653295
0.28716
0.665172
0.307441
0.409111
0.317525
0.572509
0.340793
0.674761
0.300154
0.925988
0.260723
0.568515
0.342701
0.666229
0.256576
0.433561
0.324768
0.808828
0.236768
0.45486
0.29486
0.470769
0.293899
0.342612
0.325111
0.62926
0.310855
0.469816
0.303924
0.474912
0.3675
0.467571
0.382342
0.504234
0.265843
