# vtk DataFile Version 3.0
Tree
ASCII
DATASET POLYDATA
POINTS 8 float
-0.0287941 0 0
0 0 0
0.014397 0.014397 0
0.014397 -0.014397 0
0.014397 0.0215956 0
0.0215956 0.014397 0
0.0215956 -0.014397 0
0.014397 -0.0215956 0
LINES 7 21
2 0 1
2 1 2
2 1 3
2 2 4
2 2 5
2 3 6
2 3 7
CELL_DATA 7
SCALARS radius float
LOOKUP_TABLE default
1
1
1
1
1
1
1
