# vtk DataFile Version 3.0
Tree
ASCII
DATASET POLYDATA
POINTS 92 float
0 0 0.0287941
-0.00108484 0.0168429 -0.0217502
-0.00516154 -0.00231368 0.00850432
-0.0175042 -0.0226999 -0.000345742
-0.00671551 -0.0100028 0.0022322
0.00754242 -0.0179196 -0.0192286
-0.00154846 -0.000694104 0.0227072
0.0268245 0.00230906 0.000501101
-0.00263239 -0.00117998 0.0184463
-0.0136619 0.0205079 0.00934509
0.0111593 -0.0053976 0.0117847
0.0195166 -0.0200664 0.00273204
-0.00440279 -0.00197357 0.0114869
-0.028224 0.00262611 -0.0039035
0.00309336 0.0058784 -0.00902372
0.0196612 0.00505056 -0.0195193
-0.0035443 -0.0110683 -0.0100163
-0.00761084 -0.00702226 -0.0231174
0.0187379 0.00336605 0.00383052
0.0203226 0.0170935 -0.00372749
-0.000464539 -0.000208231 0.026968
0.0131111 0.0143551 0.0181986
-0.00125839 0.00484795 -0.00100788
-0.00263625 0.0236794 -0.00560383
-0.0104462 0.00614691 0.0150828
-0.0210851 0.00639785 0.014235
-0.00394206 -0.0124668 -0.00183233
0.00697893 -0.0255478 -0.00317811
0.00769385 0.0108853 0.0171038
0.00927884 0.0186068 0.00426645
-0.0113488 -0.0134456 -5.142e-05
-0.0190039 -0.0101069 -0.00910764
0.0136411 -0.00972064 0.0067128
0.0127691 -0.00798655 -0.00698434
-0.0151758 0.00199414 -0.000657905
-0.0156536 0.00694006 -0.0142984
-0.00316351 -0.00141806 0.0163585
-0.000280186 -0.0214673 0.012576
-0.00958189 -0.00216136 0.00764258
-0.0206198 -0.0109669 0.00744953
0.015135 -0.00297751 0.00957274
0.0249412 -0.00501255 0.0113253
-0.00382273 -0.0120472 -0.00428752
-0.0103701 -0.0224925 -0.0120978
-0.002297 -0.0084722 -0.0163346
0.00439595 -0.00526458 -0.0213522
-0.00476607 0.0153984 -0.00642765
-0.0122111 0.0210063 -0.0151117
0.00526057 0.0051981 0.0219779
0.0153712 0.00433539 0.0216217
-0.000789716 -0.000353993 0.0256898
-0.00511565 0.0123676 0.0223506
0.00711626 0.0161243 0.0133968
0.00427247 0.0229774 0.0148678
0.0119038 -0.00669451 0.0102631
0.0139239 -0.019059 0.0135949
-0.0139368 0.0162692 0.00825103
-0.0183189 0.0217823 -0.00111969
-0.00362783 -0.011362 -0.00829765
-0.0123887 -0.00386227 -0.014732
-0.000588106 -0.000263621 0.0264823
-0.00142702 -0.0138052 0.0251504
-0.00496224 -0.0131544 0.014734
-0.0128828 -0.0204203 0.0148795
0.0218174 0.00337841 0.000728439
0.0251391 0.00549285 -0.0119062
-0.000278573 -0.0195623 0.0123528
0.00641422 -0.0265392 0.00869595
0.00586871 -0.0139458 -0.0164462
0.0142354 -0.0115575 -0.0198201
-0.00214344 0.0126437 -0.00549509
0.00519782 0.0220985 -0.0133159
-0.00317619 -0.00674687 0.0146729
0.00124271 -0.0101401 0.00837982
0.000980842 -0.0106329 0.0245069
0.00621373 -0.0179515 0.0213299
-0.000499372 0.00521117 -0.00579871
-0.00671622 0.00486626 -0.0151885
-0.00242934 0.00269946 0.00184578
0.00658823 0.00849082 0.0030291
-0.00809496 -0.0162331 -0.0102542
-0.011598 -0.0150592 -0.016671
-0.0118241 0.0103152 0.0137643
-0.0135562 0.016399 0.01884
-0.00789433 0.00243123 0.0174301
-0.0162181 0.00211031 0.021518
-0.0142285 0.0132711 0.0103225
-0.0225093 0.0131413 0.00611353
-0.00230721 -0.00103422 0.0197246
-0.011577 -0.00631299 0.0195374
-0.00353529 -0.00158471 0.014897
-0.00318279 0.00600651 0.0116985
LINES 91 273
2 14 1
2 12 2
2 30 3
2 2 4
2 68 5
2 50 6
2 64 7
2 88 8
2 56 9
2 6 10
2 32 11
2 90 12
2 34 13
2 76 14
2 14 15
2 58 16
2 44 17
2 40 18
2 18 19
2 0 20
2 28 21
2 78 22
2 46 23
2 84 24
2 24 25
2 4 26
2 26 27
2 48 28
2 52 29
2 4 30
2 30 31
2 54 32
2 32 33
2 38 34
2 34 35
2 8 36
2 66 37
2 12 38
2 38 39
2 10 40
2 40 41
2 26 42
2 80 43
2 16 44
2 44 45
2 70 46
2 46 47
2 20 48
2 48 49
2 60 50
2 50 51
2 28 52
2 52 53
2 10 54
2 54 55
2 86 56
2 56 57
2 42 58
2 58 59
2 20 60
2 74 61
2 72 62
2 62 63
2 18 64
2 64 65
2 62 66
2 66 67
2 16 68
2 68 69
2 22 70
2 70 71
2 36 72
2 72 73
2 60 74
2 74 75
2 22 76
2 76 77
2 2 78
2 78 79
2 42 80
2 80 81
2 24 82
2 82 83
2 8 84
2 84 85
2 82 86
2 86 87
2 6 88
2 88 89
2 36 90
2 90 91
CELL_DATA 91
SCALARS radius float
LOOKUP_TABLE default
0.372989
0.895029
0.326679
0.746529
0.337911
1.13332
0.306277
1.05038
0.294087
0.651968
0.334974
0.941877
0.349323
0.47756
0.384903
0.573141
0.353606
0.518518
0.373619
1.18114
0.280142
0.650314
0.334956
0.549625
0.29895
0.700361
0.345197
0.462315
0.347588
0.417004
0.335164
0.427323
0.343258
0.444356
0.355986
0.990574
0.247038
0.491292
0.313606
0.55118
0.303799
0.671211
0.3308
0.446917
0.355823
0.444938
0.369636
0.495351
0.283281
1.13916
0.282808
0.425114
0.326586
0.478675
0.316309
0.428355
0.376014
0.610979
0.341437
1.15136
0.254612
0.463111
0.31388
0.443538
0.388252
0.408965
0.376393
0.462616
0.392403
0.511095
0.3568
0.492407
0.271745
0.363385
0.315747
0.521117
0.319459
0.670133
0.295938
0.42044
0.336558
0.518404
0.294192
0.571749
0.275315
0.484676
0.327906
1.05629
0.269863
0.948231
0.257267
