# vtk DataFile Version 3.0
Tree
ASCII
DATASET POLYDATA
POINTS 12 float
0 0 0.0287941
-0.00108484 0.0168429 -0.0217502
-0.00516154 -0.00231368 0.00850432
-0.0175042 -0.0226999 -0.000345742
-0.00671551 -0.0100028 0.0022322
0.00754242 -0.0179196 -0.0192286
-0.00154846 -0.000694104 0.0227072
0.0268245 0.00230906 0.000501101
-0.00263239 -0.00117998 0.0184463
-0.0136619 0.0205079 0.00934509
0.0111593 -0.0053976 0.0117847
0.0195166 -0.0200664 0.00273204
LINES 11 33
2 2 1
2 8 2
2 4 3
2 2 4
2 4 5
2 0 6
2 10 7
2 6 8
2 8 9
2 6 10
2 10 11
CELL_DATA 11
SCALARS radius float
LOOKUP_TABLE default
0.649776
0.908271
0.580992
0.780214
0.6533
1.10733
0.602395
0.977354
0.569088
0.751376
0.590216
