# vtk DataFile Version 3.0
Tree
ASCII
DATASET POLYDATA
POINTS 18 float
0 0 0.0287941
-0.00108484 0.0168429 -0.0217502
-0.00516154 -0.00231368 0.00850432
-0.0175042 -0.0226999 -0.000345742
-0.00671551 -0.0100028 0.0022322
0.00754242 -0.0179196 -0.0192286
-0.00154846 -0.000694104 0.0227072
0.0268245 0.00230906 0.000501101
-0.00263239 -0.00117998 0.0184463
-0.0136619 0.0205079 0.00934509
0.0111593 -0.0053976 0.0117847
0.0195166 -0.0200664 0.00273204
-0.00440279 -0.00197357 0.0114869
-0.028224 0.00262611 -0.0039035
0.00309336 0.0058784 -0.00902372
0.0196612 0.00505056 -0.0195193
-0.0035443 -0.0110683 -0.0100163
-0.00761084 -0.00702226 -0.0231174
LINES 17 51
2 14 1
2 12 2
2 4 3
2 2 4
2 16 5
2 0 6
2 10 7
2 6 8
2 8 9
2 6 10
2 10 11
2 8 12
2 12 13
2 2 14
2 14 15
2 4 16
2 16 17
CELL_DATA 17
SCALARS radius float
LOOKUP_TABLE default
0.56648
0.958532
0.512692
0.793244
0.574564
1.14019
0.542917
1.05424
0.511431
0.677188
0.53194
1.01249
0.539772
0.725297
0.584574
0.714248
0.559022
