# vtk DataFile Version 4.1
vtk output
ASCII
DATASET POLYDATA
POINTS 15870 float
40693.5 56318.5 68.45 40693.5 56318.5 268.45 40693.5 56318.5 468.45 
40693.5 56318.5 668.45 40693.5 56318.5 868.45 40693.5 56318.5 1068.45 
40693.5 56318.5 1268.45 40693.5 56318.5 1468.45 40693.5 56318.5 1668.45 
40693.5 56318.5 1868.45 40693.5 56318.5 2068.45 40693.5 56318.5 2268.45 
40693.5 56318.5 2468.45 40693.5 56318.5 2568.45 40524.7 56294.9 2673.1 
40355.9 56271.2 2777.75 40187.1 56247.6 2882.4 40018.3 56224 2987.05 
39849.6 56200.3 3091.7 39680.8 56176.7 3196.35 39512 56153.1 3301 
39343.2 56129.5 3405.65 39174.4 56105.8 3510.3 39005.6 56082.2 3614.95 
38836.8 56058.6 3719.6 38668 56034.9 3824.25 38499.2 56011.3 3928.9 
38330.4 55987.7 4033.55 38161.7 55964 4138.2 37992.9 55940.4 4242.85 
37824.1 55916.8 4347.5 37655.3 55893.1 4452.15 37486.5 55869.5 4556.79 
37317.7 55845.9 4661.44 37148.9 55822.3 4766.09 36980.1 55798.6 4870.74 
36811.3 55775 4975.39 36642.5 55751.4 5080.04 36473.8 55727.7 5184.69 
36305 55704.1 5289.34 36136.2 55680.5 5393.99 35967.4 55656.8 5498.64 
35798.6 55633.2 5603.29 35629.8 55609.6 5707.94 35461 55586 5812.59 
35292.2 55562.3 5917.24 35123.4 55538.7 6021.89 34954.6 55515.1 6126.54 
34785.9 55491.4 6231.19 34617.1 55467.8 6335.84 34448.3 55444.2 6440.49 
34443.5 55443.5 6443.45 34584.9 55443.5 6584.87 34693.5 55443.5 6693.45 
34693.5 55302.1 6834.87 34693.5 55193.5 6943.45 34493.5 55193.5 6943.45 
34443.5 55193.5 6943.45 34302.1 55052.1 6943.45 34193.5 54943.5 6943.45 
34809 55078 7058.92 34924.4 54962.6 7174.39 34943.5 54943.5 7193.45 
35059 54828 7308.92 35174.4 54712.6 7424.39 35193.5 54693.5 7443.45 
35309 54809 7327.98 35424.4 54924.4 7212.51 35443.5 54943.5 7193.45 
35643.5 54943.5 7193.45 35693.5 54943.5 7193.45 35893.5 54943.5 7193.45 
35943.5 54943.5 7193.45 35078 54578 7558.92 34962.6 54462.6 7674.39 
34943.5 54443.5 7693.45 34743.5 54443.5 7693.45 34693.5 54443.5 7693.45 
34578 54328 7808.92 34462.6 54212.6 7924.39 34443.5 54193.5 7943.45 
34328 54309 7827.98 34212.6 54424.4 7712.51 34193.5 54443.5 7693.45 
34443.5 54052.1 8084.87 34443.5 53943.5 8193.45 34243.5 53943.5 8193.45 
34193.5 53943.5 8193.45 33993.5 53943.5 8193.45 33943.5 53943.5 8193.45 
33802.1 53802.1 8193.45 33693.5 53693.5 8193.45 33578 53809 8077.98 
33462.6 53924.4 7962.51 33443.5 53943.5 7943.45 33328 54059 7827.98 
33212.6 54174.4 7712.51 33193.5 54193.5 7693.45 33052.1 54334.9 7693.45 
32943.5 54443.5 7693.45 32828 54559 7577.98 32712.6 54674.4 7462.51 
32693.5 54693.5 7443.45 33578 53578 8308.92 33462.6 53462.6 8424.39 
33443.5 53443.5 8443.45 33302.1 53443.5 8584.87 33193.5 53443.5 8693.45 
33078 53328 8577.98 32962.6 53212.6 8462.51 32943.5 53193.5 8443.45 
32743.5 53193.5 8443.45 32693.5 53193.5 8443.45 32552.1 53193.5 8584.87 
32443.5 53193.5 8693.45 32243.5 53193.5 8693.45 32193.5 53193.5 8693.45 
32193.5 53193.5 8893.45 32193.5 53193.5 8943.45 32193.5 53193.5 9143.45 
32193.5 53193.5 9193.45 32078 53078 9308.92 31962.6 52962.6 9424.39 
31943.5 52943.5 9443.45 31743.5 52943.5 9443.45 31693.5 52943.5 9443.45 
31493.5 52943.5 9443.45 31443.5 52943.5 9443.45 31243.5 52943.5 9443.45 
31193.5 52943.5 9443.45 31193.5 52943.5 9643.45 31193.5 52943.5 9693.45 
31078 52828 9808.92 30962.6 52712.6 9924.39 30943.5 52693.5 9943.45 
30943.5 52693.5 10143.5 30943.5 52693.5 10193.5 30943.5 52552.1 10334.9 
30943.5 52443.5 10443.5 30943.5 52443.5 10643.5 30943.5 52443.5 10693.5 
30802.1 52443.5 10834.9 30693.5 52443.5 10943.5 30493.5 52443.5 10943.5 
30443.5 52443.5 10943.5 30243.5 52443.5 10943.5 30193.5 52443.5 10943.5 
30078 52328 11059 29962.6 52212.6 11174.4 29943.5 52193.5 11193.5 
29828 52078 11309 29712.6 51962.6 11424.4 29693.5 51943.5 11443.5 
29552.1 51943.5 11584.9 29443.5 51943.5 11693.5 29302.1 51943.5 11552.1 
29193.5 51943.5 11443.5 29328 51828 11809 29212.6 51712.6 11924.4 
29193.5 51693.5 11943.5 29078 51578 12059 28962.6 51462.6 12174.4 
28943.5 51443.5 12193.5 28743.5 51443.5 12193.5 28693.5 51443.5 12193.5 
28693.5 51302.1 12334.9 28693.5 51193.5 12443.5 28872.4 51282.9 12443.5 
29051.3 51372.4 12443.5 29193.5 51443.5 12443.5 28578 51078 12559 
28462.6 50962.6 12674.4 28443.5 50943.5 12693.5 28243.5 50943.5 12693.5 
28193.5 50943.5 12693.5 28078 50828 12809 27962.6 50712.6 12924.4 
27943.5 50693.5 12943.5 27828 50578 13059 27712.6 50462.6 13174.4 
27693.5 50443.5 13193.5 27578 50328 13309 27462.6 50212.6 13424.4 
27443.5 50193.5 13443.5 27302.1 50052.1 13443.5 27193.5 49943.5 13443.5 
27052.1 49943.5 13302.1 26943.5 49943.5 13193.5 26828 50059 13078 
26712.6 50174.4 12962.6 26693.5 50193.5 12943.5 27193.5 49943.5 13643.5 
27193.5 49943.5 13693.5 27078 49828 13809 26962.6 49712.6 13924.4 
26943.5 49693.5 13943.5 26943.5 49552.1 14084.9 26943.5 49443.5 14193.5 
26802.1 49443.5 14334.9 26693.5 49443.5 14443.5 26578 49328 14559 
26462.6 49212.6 14674.4 26443.5 49193.5 14693.5 26302.1 49052.1 14693.5 
26193.5 48943.5 14693.5 26052.1 48802.1 14693.5 25943.5 48693.5 14693.5 
25828 48578 14578 25712.6 48462.6 14462.6 25693.5 48443.5 14443.5 
25578 48328 14559 25462.6 48212.6 14674.4 25443.5 48193.5 14693.5 
25328 48078 14809 25212.6 47962.6 14924.4 25193.5 47943.5 14943.5 
25014.6 47854.1 14943.5 24835.7 47764.6 14943.5 24693.4 47693.5 14943.5 
24552 47552.1 14943.5 24443.4 47443.5 14943.5 24327.9 47328 15059 
24212.5 47212.6 15174.4 24193.4 47193.5 15193.5 24193.4 47052.1 15334.9 
24193.4 46943.5 15443.5 24193.4 46943.5 15643.5 24193.4 46943.5 15693.5 
24193.4 46943.5 15893.5 24193.4 46943.5 16093.5 24193.4 46943.5 16193.5 
24077.9 46828 16078 23962.5 46712.6 15962.6 23943.4 46693.5 15943.5 
23827.9 46578 15828 23712.5 46462.6 15712.6 23693.4 46443.5 15693.5 
23552 46443.5 15552.1 23443.4 46443.5 15443.5 23327.9 46559 15328 
23212.5 46674.4 15212.6 23193.4 46693.5 15193.5 23577.9 46328 15809 
23462.5 46212.6 15924.4 23443.4 46193.5 15943.5 23302 46052.1 15943.5 
23193.4 45943.5 15943.5 23052 45802.1 15943.5 22943.4 45693.5 15943.5 
22802 45552.1 15943.5 22693.4 45443.5 15943.5 22577.9 45328 16059 
22462.5 45212.6 16174.4 22443.4 45193.5 16193.5 22327.9 45078 16308.9 
22212.4 44962.5 16424.4 22193.4 44943.5 16443.4 22077.9 44828 16558.9 
21962.5 44712.6 16674.3 21943.4 44693.5 16693.4 21802 44552.1 16693.4 
21693.4 44443.5 16693.4 21552 44302.1 16693.4 21443.4 44193.5 16693.4 
21443.4 43993.5 16693.4 21443.4 43943.5 16693.4 21443.4 43802.1 16834.8 
21443.4 43693.5 16943.4 21302 43552.1 16943.4 21193.4 43443.5 16943.4 
21193.4 43443.5 16743.4 21193.4 43443.5 16693.4 21077.9 43559 16577.9 
20962.5 43674.4 16462.5 20943.4 43693.5 16443.4 21077.9 43328 17058.9 
20962.5 43212.6 17174.3 20943.4 43193.5 17193.4 20802 43052.1 17193.4 
20693.4 42943.5 17193.4 20552 42802.1 17193.4 20443.4 42693.5 17193.4 
20443.4 42552.1 17334.8 20443.4 42443.5 17443.4 20443.4 42302.1 17584.8 
20443.4 42193.5 17693.4 20302 42052.1 17693.4 20193.4 41943.5 17693.4 
20052 41802.1 17693.4 19943.4 41693.5 17693.4 19943.4 41493.5 17693.4 
19943.4 41443.5 17693.4 19943.4 41243.5 17693.4 19943.4 41193.5 17693.4 
19802 41052.1 17693.4 19693.4 40943.5 17693.4 19693.4 40802.1 17552 
19693.4 40693.5 17443.4 19577.9 40578 17327.9 19462.5 40462.6 17212.5 
19443.4 40443.5 17193.4 19443.4 40302.1 17052 19443.4 40193.5 16943.4 
19443.4 39993.5 16943.4 19443.4 39943.5 16943.4 19443.4 39802.1 16802 
19443.4 39693.5 16693.4 19443.4 39493.5 16693.4 19443.4 39443.5 16693.4 
19443.4 39243.5 16693.4 19443.4 39193.5 16693.4 19443.4 38993.5 16693.4 
19443.4 38943.5 16693.4 19443.4 38743.5 16693.4 19443.4 38543.5 16693.4 
19443.4 38443.5 16693.4 19443.4 38243.5 16693.4 19443.4 38193.5 16693.4 
19443.4 37993.5 16693.4 19443.4 37943.5 16693.4 19443.4 37743.5 16693.4 
19443.4 37693.5 16693.4 19443.4 37552.1 16834.8 19443.4 37443.5 16943.4 
19443.4 37443.5 17143.4 19443.4 37443.5 17193.4 19443.4 37443.5 17393.4 
19443.4 37443.5 17443.4 19443.4 37302.1 17584.8 19443.4 37193.5 17693.4 
19302 37193.5 17834.8 19193.4 37193.5 17943.4 19052 37193.5 18084.8 
18943.4 37193.5 18193.4 18943.4 37334.9 18334.8 18943.4 37443.5 18443.4 
18943.4 37443.5 18643.4 18943.4 37443.5 18693.4 18943.4 37584.9 18834.8 
18943.4 37693.5 18943.4 18943.4 37552.1 19084.8 18943.4 37443.5 19193.4 
18943.4 37302.1 19334.8 18943.4 37193.5 19443.4 18943.4 36993.5 19443.4 
18943.4 36943.5 19443.4 18943.4 36802.1 19584.8 18943.4 36693.5 19693.4 
18943.4 36552.1 19834.8 18943.4 36443.5 19943.4 18943.4 36302.1 20084.8 
18943.4 36193.5 20193.4 18943.4 35993.5 20193.4 18943.4 35943.5 20193.4 
18943.4 35802.1 20052 18943.4 35693.5 19943.4 18943.4 35493.5 19943.4 
18943.4 35443.5 19943.4 19058.9 35328 19827.9 19174.3 35212.6 19712.5 
19193.4 35193.5 19693.4 19308.9 35078 19808.9 19424.3 34962.6 19924.3 
19443.4 34943.5 19943.4 19193.4 35014.6 19782.8 19193.4 34835.7 19872.3 
19193.4 34693.5 19943.4 19193.4 34552.1 20084.8 19193.4 34443.5 20193.4 
19193.4 34243.5 20193.4 19193.4 34193.5 20193.4 19275 34111.9 20356.7 
19356.7 34030.2 20520 19438.3 33948.6 20683.3 19443.4 33943.5 20693.4 
19443.4 33943.5 20493.4 19443.4 33943.5 20443.4 19443.4 33743.5 20693.4 
19443.4 33693.5 20693.4 19443.4 33552.1 20834.8 19443.4 33443.5 20943.4 
19443.4 33243.5 20943.4 19443.4 33193.5 20943.4 19558.9 33078 21058.9 
19674.3 32962.6 21174.3 19693.4 32943.5 21193.4 19808.9 32828 21308.9 
19924.3 32712.6 21424.3 19943.4 32693.5 21443.4 19802 32552.1 21443.4 
19693.4 32443.5 21443.4 19808.9 32328 21558.9 19924.3 32212.6 21674.3 
19943.4 32193.5 21693.4 19943.4 31993.5 21693.4 19943.4 31943.5 21693.4 
19943.4 31802.1 21834.8 19943.4 31693.5 21943.4 20058.9 31578 22058.9 
20174.3 31462.6 22174.3 20193.4 31443.5 22193.4 20334.8 31302.1 22193.4 
20443.4 31193.5 22193.4 20443.4 31052.1 22334.8 20443.4 30943.5 22443.4 
20550.3 30783.1 22496.9 20657.2 30622.8 22550.3 20764.1 30462.4 22603.8 
20871 30302.1 22657.2 20943.4 30193.5 22693.4 20943.4 29993.5 22693.4 
20943.4 29943.5 22693.4 20943.4 29743.5 22693.4 20943.4 29693.5 22693.4 
21084.8 29552.1 22693.4 21193.4 29443.5 22693.4 21308.9 29328 22577.9 
[...]
POINT_DATA 15870
SCALARS Scalars_ float
LOOKUP_TABLE default
8e-06 8e-06 8e-06 8e-06 8e-06 8e-06 8e-06 8e-06 8e-06 
8e-06 8e-06 8e-06 8e-06 8e-06 8e-06 8e-06 8e-06 8e-06 
8e-06 8e-06 8e-06 8e-06 8e-06 8e-06 8e-06 8e-06 8e-06 
8e-06 8e-06 8e-06 8e-06 8e-06 8e-06 8e-06 8e-06 8e-06 
8e-06 8e-06 8e-06 8e-06 8e-06 8e-06 8e-06 8e-06 8e-06 
8e-06 8e-06 8e-06 8e-06 8e-06 8e-06 8e-06 8e-06 8e-06 
8e-06 8e-06 8e-06 8e-06 8e-06 8e-06 8e-06 8e-06 8e-06 
8e-06 8e-06 8e-06 8e-06 8e-06 8e-06 8e-06 8e-06 8e-06 
8e-06 8e-06 8e-06 8e-06 8e-06 8e-06 8e-06 8e-06 8e-06 
8e-06 8e-06 8e-06 8e-06 8e-06 8e-06 8e-06 8e-06 8e-06 
8e-06 8e-06 8e-06 8e-06 8e-06 8e-06 8e-06 8e-06 8e-06 
8e-06 8e-06 8e-06 8e-06 8e-06 8e-06 8e-06 8e-06 8e-06 
8e-06 8e-06 8e-06 8e-06 8e-06 8e-06 8e-06 8e-06 8e-06 
8e-06 8e-06 8e-06 8e-06 8e-06 8e-06 8e-06 8e-06 8e-06 
8e-06 8e-06 8e-06 8e-06 8e-06 8e-06 8e-06 8e-06 8e-06 
8e-06 8e-06 8e-06 8e-06 8e-06 8e-06 8e-06 8e-06 8e-06 
8e-06 8e-06 8e-06 8e-06 8e-06 8e-06 8e-06 8e-06 8e-06 
8e-06 8e-06 8e-06 8e-06 8e-06 8e-06 8e-06 8e-06 8e-06 
8e-06 8e-06 8e-06 8e-06 8e-06 8e-06 8e-06 8e-06 8e-06 
8e-06 8e-06 8e-06 8e-06 8e-06 8e-06 8e-06 8e-06 8e-06 
8e-06 8e-06 8e-06 8e-06 8e-06 8e-06 8e-06 8e-06 8e-06 
8e-06 8e-06 8e-06 8e-06 8e-06 8e-06 8e-06 8e-06 8e-06 
8e-06 8e-06 8e-06 8e-06 8e-06 8e-06 8e-06 8e-06 8e-06 
8e-06 8e-06 8e-06 8e-06 8e-06 8e-06 8e-06 8e-06 8e-06 
8e-06 8e-06 8e-06 8e-06 8e-06 8e-06 8e-06 8e-06 8e-06 
8e-06 8e-06 8e-06 8e-06 8e-06 8e-06 8e-06 8e-06 8e-06 
8e-06 8e-06 8e-06 8e-06 8e-06 8e-06 8e-06 8e-06 8e-06 
8e-06 8e-06 8e-06 8e-06 8e-06 8e-06 8e-06 8e-06 8e-06 
8e-06 8e-06 8e-06 8e-06 8e-06 8e-06 8e-06 8e-06 8e-06 
8e-06 8e-06 8e-06 8e-06 8e-06 8e-06 8e-06 8e-06 8e-06 
8e-06 8e-06 8e-06 8e-06 8e-06 8e-06 8e-06 8e-06 8e-06 
8e-06 8e-06 8e-06 8e-06 8e-06 8e-06 8e-06 8e-06 8e-06 
8e-06 8e-06 8e-06 8e-06 8e-06 8e-06 8e-06 8e-06 8e-06 
8e-06 8e-06 8e-06 8e-06 8e-06 8e-06 8e-06 8e-06 8e-06 
8e-06 8e-06 8e-06 8e-06 8e-06 8e-06 8e-06 8e-06 8e-06 
8e-06 8e-06 8e-06 8e-06 8e-06 8e-06 8e-06 8e-06 8e-06 
8e-06 8e-06 8e-06 8e-06 8e-06 8e-06 8e-06 8e-06 8e-06 
8e-06 8e-06 8e-06 8e-06 8e-06 8e-06 8e-06 8e-06 8e-06 
8e-06 8e-06 8e-06 8e-06 8e-06 8e-06 8e-06 8e-06 8e-06 
8e-06 8e-06 8e-06 8e-06 8e-06 8e-06 8e-06 8e-06 8e-06 
8e-06 8e-06 8e-06 8e-06 8e-06 8e-06 8e-06 8e-06 8e-06 
8e-06 8e-06 8e-06 8e-06 8e-06 8e-06 8e-06 8e-06 8e-06 
8e-06 8e-06 8e-06 8e-06 8e-06 8e-06 8e-06 8e-06 8e-06 
8e-06 8e-06 8e-06 8e-06 8e-06 8e-06 8e-06 8e-06 8e-06 
8e-06 8e-06 8e-06 8e-06 8e-06 8e-06 8e-06 8e-06 8e-06 
8e-06 8e-06 8e-06 8e-06 8e-06 8e-06 8e-06 8e-06 8e-06 
8e-06 8e-06 8e-06 8e-06 8e-06 8e-06 8e-06 8e-06 8e-06 
8e-06 8e-06 8e-06 8e-06 8e-06 8e-06 8e-06 8e-06 8e-06 
8e-06 8e-06 8e-06 8e-06 8e-06 8e-06 8e-06 8e-06 8e-06 
8e-06 8e-06 8e-06 8e-06 8e-06 8e-06 8e-06 8e-06 8e-06 
8e-06 8e-06 8e-06 8e-06 8e-06 8e-06 8e-06 8e-06 8e-06 
8e-06 8e-06 8e-06 8e-06 8e-06 8e-06 8e-06 8e-06 8e-06 
8e-06 8e-06 8e-06 8e-06 8e-06 8e-06 8e-06 8e-06 8e-06 
8e-06 8e-06 8e-06 8e-06 8e-06 8e-06 8e-06 8e-06 8e-06 
8e-06 8e-06 8e-06 8e-06 8e-06 8e-06 8e-06 8e-06 8e-06 
8e-06 8e-06 8e-06 8e-06 8e-06 8e-06 8e-06 8e-06 8e-06 
8e-06 8e-06 8e-06 8e-06 8e-06 8e-06 8e-06 8e-06 8e-06 
8e-06 8e-06 8e-06 8e-06 8e-06 8e-06 8e-06 8e-06 8e-06 
8e-06 8e-06 8e-06 8e-06 8e-06 8e-06 8e-06 8e-06 8e-06 
8e-06 8e-06 8e-06 8e-06 8e-06 8e-06 8e-06 8e-06 8e-06 
8e-06 8e-06 8e-06 8e-06 8e-06 8e-06 8e-06 8e-06 8e-06 
8e-06 8e-06 8e-06 8e-06 8e-06 8e-06 8e-06 8e-06 8e-06 
8e-06 8e-06 8e-06 8e-06 8e-06 8e-06 8e-06 8e-06 8e-06 
8e-06 8e-06 8e-06 8e-06 8e-06 8e-06 8e-06 8e-06 8e-06 
8e-06 8e-06 8e-06 8e-06 8e-06 8e-06 8e-06 8e-06 8e-06 
8e-06 8e-06 8e-06 8e-06 8e-06 8e-06 8e-06 8e-06 8e-06 
8e-06 8e-06 8e-06 8e-06 8e-06 8e-06 8e-06 8e-06 8e-06 
8e-06 8e-06 8e-06 8e-06 8e-06 8e-06 8e-06 8e-06 8e-06 
8e-06 8e-06 8e-06 8e-06 8e-06 8e-06 8e-06 8e-06 8e-06 
8e-06 8e-06 8e-06 8e-06 8e-06 8e-06 8e-06 8e-06 8e-06 
8e-06 8e-06 8e-06 8e-06 8e-06 8e-06 8e-06 8e-06 8e-06 
8e-06 8e-06 8e-06 8e-06 8e-06 8e-06 8e-06 8e-06 8e-06 
8e-06 8e-06 8e-06 8e-06 8e-06 8e-06 8e-06 8e-06 8e-06 
8e-06 8e-06 8e-06 8e-06 8e-06 8e-06 8e-06 8e-06 8e-06 
8e-06 8e-06 8e-06 8e-06 8e-06 8e-06 8e-06 8e-06 8e-06 
8e-06 8e-06 8e-06 8e-06 8e-06 8e-06 8e-06 8e-06 8e-06 
8e-06 8e-06 8e-06 8e-06 8e-06 8e-06 8e-06 8e-06 8e-06 
8e-06 8e-06 8e-06 8e-06 8e-06 8e-06 8e-06 8e-06 8e-06 
8e-06 8e-06 8e-06 8e-06 8e-06 8e-06 8e-06 8e-06 8e-06 
8e-06 8e-06 8e-06 8e-06 8e-06 8e-06 8e-06 8e-06 8e-06 
8e-06 8e-06 8e-06 8e-06 8e-06 8e-06 8e-06 8e-06 8e-06 
8e-06 8e-06 8e-06 8e-06 8e-06 8e-06 8e-06 8e-06 8e-06 
8e-06 8e-06 8e-06 8e-06 8e-06 8e-06 8e-06 8e-06 8e-06 
8e-06 8e-06 8e-06 8e-06 8e-06 8e-06 8e-06 8e-06 8e-06 
8e-06 8e-06 8e-06 8e-06 8e-06 8e-06 8e-06 8e-06 8e-06 
8e-06 8e-06 8e-06 8e-06 8e-06 8e-06 8e-06 8e-06 8e-06 
8e-06 8e-06 8e-06 8e-06 8e-06 8e-06 8e-06 8e-06 8e-06 
8e-06 8e-06 8e-06 8e-06 8e-06 8e-06 8e-06 8e-06 8e-06 
8e-06 8e-06 8e-06 8e-06 8e-06 8e-06 8e-06 8e-06 8e-06 
8e-06 8e-06 8e-06 8e-06 8e-06 8e-06 8e-06 8e-06 8e-06 
8e-06 8e-06 8e-06 8e-06 8e-06 8e-06 8e-06 8e-06 8e-06 
8e-06 8e-06 8e-06 8e-06 8e-06 8e-06 8e-06 8e-06 8e-06 
8e-06 8e-06 8e-06 8e-06 8e-06 8e-06 8e-06 8e-06 8e-06 
8e-06 8e-06 8e-06 8e-06 8e-06 8e-06 8e-06 8e-06 8e-06 
8e-06 8e-06 8e-06 8e-06 8e-06 8e-06 8e-06 8e-06 8e-06 
8e-06 8e-06 8e-06 8e-06 8e-06 8e-06 8e-06 8e-06 8e-06 
8e-06 8e-06 8e-06 8e-06 8e-06 8e-06 8e-06 8e-06 8e-06 
8e-06 8e-06 8e-06 8e-06 8e-06 8e-06 8e-06 8e-06 8e-06 
8e-06 8e-06 8e-06 8e-06 8e-06 8e-06 8e-06 8e-06 8e-06 
8e-06 8e-06 8e-06 8e-06 8e-06 8e-06 8e-06 8e-06 8e-06 
8e-06 8e-06 8e-06 8e-06 8e-06 8e-06 8e-06 8e-06 8e-06 
8e-06 8e-06 8e-06 8e-06 8e-06 8e-06 8e-06 8e-06 8e-06 
8e-06 8e-06 8e-06 8e-06 8e-06 8e-06 8e-06 8e-06 8e-06 
8e-06 8e-06 8e-06 8e-06 8e-06 8e-06 8e-06 8e-06 8e-06 
8e-06 8e-06 8e-06 8e-06 8e-06 8e-06 8e-06 8e-06 8e-06 
8e-06 8e-06 8e-06 8e-06 8e-06 8e-06 8e-06 8e-06 8e-06 
8e-06 8e-06 8e-06 8e-06 8e-06 8e-06 8e-06 8e-06 8e-06 
8e-06 8e-06 8e-06 8e-06 8e-06 8e-06 8e-06 8e-06 8e-06 
8e-06 8e-06 8e-06 8e-06 8e-06 8e-06 8e-06 8e-06 8e-06 
8e-06 8e-06 8e-06 8e-06 8e-06 8e-06 8e-06 8e-06 8e-06 
8e-06 8e-06 8e-06 8e-06 8e-06 8e-06 8e-06 8e-06 8e-06 
8e-06 8e-06 8e-06 8e-06 8e-06 8e-06 8e-06 8e-06 8e-06 
8e-06 8e-06 8e-06 8e-06 8e-06 8e-06 8e-06 8e-06 8e-06 
8e-06 8e-06 8e-06 8e-06 8e-06 8e-06 8e-06 8e-06 8e-06 
8e-06 8e-06 8e-06 8e-06 8e-06 8e-06 8e-06 8e-06 8e-06 
8e-06 8e-06 8e-06 8e-06 8e-06 8e-06 8e-06 8e-06 8e-06 
8e-06 8e-06 8e-06 8e-06 8e-06 8e-06 8e-06 8e-06 8e-06 
8e-06 8e-06 8e-06 8e-06 8e-06 8e-06 8e-06 8e-06 8e-06 
8e-06 8e-06 8e-06 8e-06 8e-06 8e-06 8e-06 8e-06 8e-06 
8e-06 8e-06 8e-06 8e-06 8e-06 8e-06 8e-06 8e-06 8e-06 
8e-06 8e-06 8e-06 8e-06 8e-06 8e-06 8e-06 8e-06 8e-06 
8e-06 8e-06 8e-06 8e-06 8e-06 8e-06 8e-06 8e-06 8e-06 
8e-06 8e-06 8e-06 8e-06 8e-06 8e-06 8e-06 8e-06 8e-06 
8e-06 8e-06 8e-06 8e-06 8e-06 8e-06 8e-06 8e-06 8e-06 
8e-06 8e-06 8e-06 8e-06 8e-06 8e-06 8e-06 8e-06 8e-06 
8e-06 8e-06 8e-06 8e-06 8e-06 8e-06 8e-06 8e-06 8e-06 
8e-06 8e-06 8e-06 8e-06 8e-06 8e-06 8e-06 8e-06 8e-06 
8e-06 8e-06 8e-06 8e-06 8e-06 8e-06 8e-06 8e-06 8e-06 
8e-06 8e-06 8e-06 8e-06 8e-06 8e-06 8e-06 8e-06 8e-06 
8e-06 8e-06 8e-06 8e-06 8e-06 8e-06 8e-06 8e-06 8e-06 
8e-06 8e-06 8e-06 8e-06 8e-06 8e-06 8e-06 8e-06 8e-06 
8e-06 8e-06 8e-06 8e-06 8e-06 8e-06 8e-06 8e-06 8e-06 
8e-06 8e-06 8e-06 8e-06 8e-06 8e-06 8e-06 8e-06 8e-06 
8e-06 8e-06 8e-06 8e-06 8e-06 8e-06 8e-06 8e-06 8e-06 
8e-06 8e-06 8e-06 8e-06 8e-06 8e-06 8e-06 8e-06 8e-06 
8e-06 8e-06 8e-06 8e-06 8e-06 8e-06 8e-06 8e-06 8e-06 
8e-06 8e-06 8e-06 8e-06 8e-06 8e-06 8e-06 8e-06 8e-06 
8e-06 8e-06 8e-06 8e-06 8e-06 8e-06 8e-06 8e-06 8e-06 
8e-06 8e-06 8e-06 8e-06 8e-06 8e-06 8e-06 8e-06 8e-06 
8e-06 8e-06 8e-06 8e-06 8e-06 8e-06 8e-06 8e-06 8e-06 
8e-06 8e-06 8e-06 8e-06 8e-06 8e-06 8e-06 8e-06 8e-06 
8e-06 8e-06 8e-06 8e-06 8e-06 8e-06 8e-06 8e-06 8e-06 
8e-06 8e-06 8e-06 8e-06 8e-06 8e-06 8e-06 8e-06 8e-06 
8e-06 8e-06 8e-06 8e-06 8e-06 8e-06 8e-06 8e-06 8e-06 
8e-06 8e-06 8e-06 8e-06 8e-06 8e-06 8e-06 8e-06 8e-06 
8e-06 8e-06 8e-06 8e-06 8e-06 8e-06 8e-06 8e-06 8e-06 
8e-06 8e-06 8e-06 8e-06 8e-06 8e-06 8e-06 8e-06 8e-06 
8e-06 8e-06 8e-06 8e-06 8e-06 8e-06 8e-06 8e-06 8e-06 
8e-06 8e-06 8e-06 8e-06 8e-06 8e-06 8e-06 8e-06 8e-06 
8e-06 8e-06 8e-06 8e-06 8e-06 8e-06 8e-06 8e-06 8e-06 
8e-06 8e-06 8e-06 8e-06 8e-06 8e-06 8e-06 8e-06 8e-06 
8e-06 8e-06 8e-06 8e-06 8e-06 8e-06 8e-06 8e-06 8e-06 
8e-06 8e-06 8e-06 8e-06 8e-06 8e-06 8e-06 8e-06 8e-06 
8e-06 8e-06 8e-06 8e-06 8e-06 8e-06 8e-06 8e-06 8e-06 
8e-06 8e-06 8e-06 8e-06 8e-06 8e-06 8e-06 8e-06 8e-06 
8e-06 8e-06 8e-06 8e-06 8e-06 8e-06 8e-06 8e-06 8e-06 
8e-06 8e-06 8e-06 8e-06 8e-06 8e-06 8e-06 8e-06 8e-06 
8e-06 8e-06 8e-06 8e-06 8e-06 8e-06 8e-06 8e-06 8e-06 
8e-06 8e-06 8e-06 8e-06 8e-06 8e-06 8e-06 8e-06 8e-06 
8e-06 8e-06 8e-06 8e-06 8e-06 8e-06 8e-06 8e-06 8e-06 
8e-06 8e-06 8e-06 8e-06 8e-06 8e-06 8e-06 8e-06 8e-06 
8e-06 8e-06 8e-06 8e-06 8e-06 8e-06 8e-06 8e-06 8e-06 
8e-06 8e-06 8e-06 8e-06 8e-06 8e-06 8e-06 8e-06 8e-06 
8e-06 8e-06 8e-06 8e-06 8e-06 8e-06 8e-06 8e-06 8e-06 
8e-06 8e-06 8e-06 8e-06 8e-06 8e-06 8e-06 8e-06 8e-06 
8e-06 8e-06 8e-06 8e-06 8e-06 8e-06 8e-06 8e-06 8e-06 
8e-06 8e-06 8e-06 8e-06 8e-06 8e-06 8e-06 8e-06 8e-06 
8e-06 8e-06 8e-06 8e-06 8e-06 8e-06 8e-06 8e-06 8e-06 
8e-06 8e-06 8e-06 8e-06 8e-06 8e-06 8e-06 8e-06 8e-06 
8e-06 8e-06 8e-06 8e-06 8e-06 8e-06 8e-06 8e-06 8e-06 
8e-06 8e-06 8e-06 8e-06 8e-06 8e-06 8e-06 8e-06 8e-06 
8e-06 8e-06 8e-06 8e-06 8e-06 8e-06 8e-06 8e-06 8e-06 
8e-06 8e-06 8e-06 8e-06 8e-06 8e-06 8e-06 8e-06 8e-06 
8e-06 8e-06 8e-06 8e-06 8e-06 8e-06 8e-06 8e-06 8e-06 
8e-06 8e-06 8e-06 8e-06 8e-06 8e-06 8e-06 8e-06 8e-06 
8e-06 8e-06 8e-06 8e-06 8e-06 8e-06 8e-06 8e-06 8e-06 
8e-06 8e-06 8e-06 8e-06 8e-06 8e-06 8e-06 8e-06 8e-06 
8e-06 8e-06 8e-06 8e-06 8e-06 8e-06 8e-06 8e-06 8e-06 
8e-06 8e-06 8e-06 8e-06 8e-06 8e-06 8e-06 8e-06 8e-06 
8e-06 8e-06 8e-06 8e-06 8e-06 8e-06 8e-06 8e-06 8e-06 
8e-06 8e-06 8e-06 8e-06 8e-06 8e-06 8e-06 8e-06 8e-06 
8e-06 8e-06 8e-06 8e-06 8e-06 8e-06 8e-06 8e-06 8e-06 
8e-06 8e-06 8e-06 8e-06 8e-06 8e-06 8e-06 8e-06 8e-06 
8e-06 8e-06 8e-06 8e-06 8e-06 8e-06 8e-06 8e-06 8e-06 
8e-06 8e-06 8e-06 8e-06 8e-06 8e-06 8e-06 8e-06 8e-06 
8e-06 8e-06 8e-06 8e-06 8e-06 8e-06 8e-06 8e-06 8e-06 
8e-06 8e-06 8e-06 8e-06 8e-06 8e-06 8e-06 8e-06 8e-06 
8e-06 8e-06 8e-06 8e-06 8e-06 8e-06 8e-06 8e-06 8e-06 
8e-06 8e-06 8e-06 8e-06 8e-06 8e-06 8e-06 8e-06 8e-06 
8e-06 8e-06 8e-06 8e-06 8e-06 8e-06 8e-06 8e-06 8e-06 
8e-06 8e-06 8e-06 8e-06 8e-06 8e-06 8e-06 8e-06 8e-06 
8e-06 8e-06 8e-06 8e-06 8e-06 8e-06 8e-06 8e-06 8e-06 
8e-06 8e-06 8e-06 8e-06 8e-06 8e-06 8e-06 8e-06 8e-06 
8e-06 8e-06 8e-06 8e-06 8e-06 8e-06 8e-06 8e-06 8e-06 
8e-06 8e-06 8e-06 8e-06 8e-06 8e-06 8e-06 8e-06 8e-06 
8e-06 8e-06 8e-06 8e-06 8e-06 8e-06 8e-06 8e-06 8e-06 
8e-06 8e-06 8e-06 8e-06 8e-06 8e-06 8e-06 8e-06 8e-06 
8e-06 8e-06 8e-06 8e-06 8e-06 8e-06 8e-06 8e-06 8e-06 
8e-06 8e-06 8e-06 8e-06 8e-06 8e-06 8e-06 8e-06 8e-06 
8e-06 8e-06 8e-06 8e-06 8e-06 8e-06 8e-06 8e-06 8e-06 
8e-06 8e-06 8e-06 8e-06 8e-06 8e-06 8e-06 8e-06 8e-06 
8e-06 8e-06 8e-06 8e-06 8e-06 8e-06 8e-06 8e-06 8e-06 
8e-06 8e-06 8e-06 8e-06 8e-06 8e-06 8e-06 8e-06 8e-06 
8e-06 8e-06 8e-06 8e-06 8e-06 8e-06 8e-06 8e-06 8e-06 
8e-06 8e-06 8e-06 8e-06 8e-06 8e-06 8e-06 8e-06 8e-06 
8e-06 8e-06 8e-06 8e-06 8e-06 8e-06 8e-06 8e-06 8e-06 
8e-06 8e-06 8e-06 8e-06 8e-06 8e-06 8e-06 8e-06 8e-06 
8e-06 8e-06 8e-06 8e-06 8e-06 8e-06 8e-06 8e-06 8e-06 
8e-06 8e-06 8e-06 8e-06 8e-06 8e-06 8e-06 8e-06 8e-06 
8e-06 8e-06 8e-06 8e-06 8e-06 8e-06 8e-06 8e-06 8e-06 
8e-06 8e-06 8e-06 8e-06 8e-06 8e-06 8e-06 8e-06 8e-06 
8e-06 8e-06 8e-06 8e-06 8e-06 8e-06 8e-06 8e-06 8e-06 
8e-06 8e-06 8e-06 8e-06 8e-06 8e-06 8e-06 8e-06 8e-06 
8e-06 8e-06 8e-06 8e-06 8e-06 8e-06 8e-06 8e-06 8e-06 
8e-06 8e-06 8e-06 8e-06 8e-06 8e-06 8e-06 8e-06 8e-06 
8e-06 8e-06 8e-06 8e-06 8e-06 8e-06 8e-06 8e-06 8e-06 
8e-06 8e-06 8e-06 8e-06 8e-06 8e-06 8e-06 8e-06 8e-06 
8e-06 8e-06 8e-06 8e-06 8e-06 8e-06 8e-06 8e-06 8e-06 
8e-06 8e-06 8e-06 8e-06 8e-06 8e-06 8e-06 8e-06 8e-06 
8e-06 8e-06 8e-06 8e-06 8e-06 8e-06 8e-06 8e-06 8e-06 
8e-06 8e-06 8e-06 8e-06 8e-06 8e-06 8e-06 8e-06 8e-06 
8e-06 8e-06 8e-06 8e-06 8e-06 8e-06 8e-06 8e-06 8e-06 
8e-06 8e-06 8e-06 8e-06 8e-06 8e-06 8e-06 8e-06 8e-06 
8e-06 8e-06 8e-06 8e-06 8e-06 8e-06 8e-06 8e-06 8e-06 
8e-06 8e-06 8e-06 8e-06 8e-06 8e-06 8e-06 8e-06 8e-06 
8e-06 8e-06 8e-06 8e-06 8e-06 8e-06 8e-06 8e-06 8e-06 
8e-06 8e-06 8e-06 8e-06 8e-06 8e-06 8e-06 8e-06 8e-06 
8e-06 8e-06 8e-06 8e-06 8e-06 8e-06 8e-06 8e-06 8e-06 
8e-06 8e-06 8e-06 8e-06 8e-06 8e-06 8e-06 8e-06 8e-06 
8e-06 8e-06 8e-06 8e-06 8e-06 8e-06 8e-06 8e-06 8e-06 
8e-06 8e-06 8e-06 8e-06 8e-06 8e-06 8e-06 8e-06 8e-06 
8e-06 8e-06 8e-06 8e-06 8e-06 8e-06 8e-06 8e-06 8e-06 
8e-06 8e-06 8e-06 8e-06 8e-06 8e-06 8e-06 8e-06 8e-06 
8e-06 8e-06 8e-06 8e-06 8e-06 8e-06 8e-06 8e-06 8e-06 
8e-06 8e-06 8e-06 8e-06 8e-06 8e-06 8e-06 8e-06 8e-06 
8e-06 8e-06 8e-06 8e-06 8e-06 8e-06 8e-06 8e-06 8e-06 
8e-06 8e-06 8e-06 8e-06 8e-06 8e-06 8e-06 8e-06 8e-06 
8e-06 8e-06 8e-06 8e-06 8e-06 8e-06 8e-06 8e-06 8e-06 
8e-06 8e-06 8e-06 8e-06 8e-06 8e-06 8e-06 8e-06 8e-06 
8e-06 8e-06 8e-06 8e-06 8e-06 8e-06 8e-06 8e-06 8e-06 
8e-06 8e-06 8e-06 8e-06 8e-06 8e-06 8e-06 8e-06 8e-06 
8e-06 8e-06 8e-06 8e-06 8e-06 8e-06 8e-06 8e-06 8e-06 
8e-06 8e-06 8e-06 8e-06 8e-06 8e-06 8e-06 8e-06 8e-06 
8e-06 8e-06 8e-06 8e-06 8e-06 8e-06 8e-06 8e-06 8e-06 
8e-06 8e-06 8e-06 8e-06 8e-06 8e-06 8e-06 8e-06 8e-06 
8e-06 8e-06 8e-06 8e-06 8e-06 8e-06 8e-06 8e-06 8e-06 
8e-06 8e-06 8e-06 8e-06 8e-06 8e-06 8e-06 8e-06 8e-06 
8e-06 8e-06 8e-06 8e-06 8e-06 8e-06 8e-06 8e-06 8e-06 
8e-06 8e-06 8e-06 8e-06 8e-06 8e-06 8e-06 8e-06 8e-06 
8e-06 8e-06 8e-06 8e-06 8e-06 8e-06 8e-06 8e-06 8e-06 
8e-06 8e-06 8e-06 8e-06 8e-06 8e-06 8e-06 8e-06 8e-06 
8e-06 8e-06 8e-06 8e-06 8e-06 8e-06 8e-06 8e-06 8e-06 
8e-06 8e-06 8e-06 8e-06 8e-06 8e-06 8e-06 8e-06 8e-06 
8e-06 8e-06 8e-06 8e-06 8e-06 8e-06 8e-06 8e-06 8e-06 
8e-06 8e-06 8e-06 8e-06 8e-06 8e-06 8e-06 8e-06 8e-06 
8e-06 8e-06 8e-06 8e-06 8e-06 8e-06 8e-06 8e-06 8e-06 
8e-06 8e-06 8e-06 8e-06 8e-06 8e-06 8e-06 8e-06 8e-06 
8e-06 8e-06 8e-06 8e-06 8e-06 8e-06 8e-06 8e-06 8e-06 
8e-06 8e-06 8e-06 8e-06 8e-06 8e-06 8e-06 8e-06 8e-06 
8e-06 8e-06 8e-06 8e-06 8e-06 8e-06 8e-06 8e-06 8e-06 
8e-06 8e-06 8e-06 8e-06 8e-06 8e-06 8e-06 8e-06 8e-06 
8e-06 8e-06 8e-06 8e-06 8e-06 8e-06 8e-06 8e-06 8e-06 
8e-06 8e-06 8e-06 8e-06 8e-06 8e-06 8e-06 8e-06 8e-06 
8e-06 8e-06 8e-06 8e-06 8e-06 8e-06 8e-06 8e-06 8e-06 
8e-06 8e-06 8e-06 8e-06 8e-06 8e-06 8e-06 8e-06 8e-06 
8e-06 8e-06 8e-06 8e-06 8e-06 8e-06 8e-06 8e-06 8e-06 
8e-06 8e-06 8e-06 8e-06 8e-06 8e-06 8e-06 8e-06 8e-06 
8e-06 8e-06 8e-06 8e-06 8e-06 8e-06 8e-06 8e-06 8e-06 
8e-06 8e-06 8e-06 8e-06 8e-06 8e-06 8e-06 8e-06 8e-06 
8e-06 8e-06 8e-06 8e-06 8e-06 8e-06 8e-06 8e-06 8e-06 
8e-06 8e-06 8e-06 8e-06 8e-06 8e-06 8e-06 8e-06 8e-06 
8e-06 8e-06 8e-06 8e-06 8e-06 8e-06 8e-06 8e-06 8e-06 
8e-06 8e-06 8e-06 8e-06 8e-06 8e-06 8e-06 8e-06 8e-06 
8e-06 8e-06 8e-06 8e-06 8e-06 8e-06 8e-06 8e-06 8e-06 
8e-06 8e-06 8e-06 8e-06 8e-06 8e-06 8e-06 8e-06 8e-06 
8e-06 8e-06 8e-06 8e-06 8e-06 8e-06 8e-06 8e-06 8e-06 
8e-06 8e-06 8e-06 8e-06 8e-06 8e-06 8e-06 8e-06 8e-06 
8e-06 8e-06 8e-06 8e-06 8e-06 8e-06 8e-06 8e-06 8e-06 
8e-06 8e-06 8e-06 8e-06 8e-06 8e-06 8e-06 8e-06 8e-06 
8e-06 8e-06 8e-06 8e-06 8e-06 8e-06 8e-06 8e-06 8e-06 
8e-06 8e-06 8e-06 8e-06 8e-06 8e-06 8e-06 8e-06 8e-06 
8e-06 8e-06 8e-06 8e-06 8e-06 8e-06 8e-06 8e-06 8e-06 
8e-06 8e-06 8e-06 8e-06 8e-06 8e-06 8e-06 8e-06 8e-06 
8e-06 8e-06 8e-06 8e-06 8e-06 8e-06 8e-06 8e-06 8e-06 
8e-06 8e-06 8e-06 8e-06 8e-06 8e-06 8e-06 8e-06 8e-06 
8e-06 8e-06 8e-06 8e-06 8e-06 8e-06 8e-06 8e-06 8e-06 
8e-06 8e-06 8e-06 8e-06 8e-06 8e-06 8e-06 8e-06 8e-06 
8e-06 8e-06 8e-06 8e-06 8e-06 8e-06 8e-06 8e-06 8e-06 
8e-06 8e-06 8e-06 8e-06 8e-06 8e-06 8e-06 8e-06 8e-06 
8e-06 8e-06 8e-06 8e-06 8e-06 8e-06 8e-06 8e-06 8e-06 
8e-06 8e-06 8e-06 8e-06 8e-06 8e-06 8e-06 8e-06 8e-06 
8e-06 8e-06 8e-06 8e-06 8e-06 8e-06 8e-06 8e-06 8e-06 
8e-06 8e-06 8e-06 8e-06 8e-06 8e-06 8e-06 8e-06 8e-06 
8e-06 8e-06 8e-06 8e-06 8e-06 8e-06 8e-06 8e-06 8e-06 
8e-06 8e-06 8e-06 8e-06 8e-06 8e-06 8e-06 8e-06 8e-06 
8e-06 8e-06 8e-06 8e-06 8e-06 8e-06 8e-06 8e-06 8e-06 
8e-06 8e-06 8e-06 8e-06 8e-06 8e-06 8e-06 8e-06 8e-06 
8e-06 8e-06 8e-06 8e-06 8e-06 8e-06 8e-06 8e-06 8e-06 
8e-06 8e-06 8e-06 8e-06 8e-06 8e-06 8e-06 8e-06 8e-06 
8e-06 8e-06 8e-06 8e-06 8e-06 8e-06 8e-06 8e-06 8e-06 
8e-06 8e-06 8e-06 8e-06 8e-06 8e-06 8e-06 8e-06 8e-06 
8e-06 8e-06 8e-06 8e-06 8e-06 8e-06 8e-06 8e-06 8e-06 
8e-06 8e-06 8e-06 8e-06 8e-06 8e-06 8e-06 8e-06 8e-06 
8e-06 8e-06 8e-06 8e-06 8e-06 8e-06 8e-06 8e-06 8e-06 
8e-06 8e-06 8e-06 8e-06 8e-06 8e-06 8e-06 8e-06 8e-06 
8e-06 8e-06 8e-06 8e-06 8e-06 8e-06 8e-06 8e-06 8e-06 
8e-06 8e-06 8e-06 8e-06 8e-06 8e-06 8e-06 8e-06 8e-06 
8e-06 8e-06 8e-06 8e-06 8e-06 8e-06 8e-06 8e-06 8e-06 
8e-06 8e-06 8e-06 8e-06 8e-06 8e-06 8e-06 8e-06 8e-06 
8e-06 8e-06 8e-06 8e-06 8e-06 8e-06 8e-06 8e-06 8e-06 
8e-06 8e-06 8e-06 8e-06 8e-06 8e-06 8e-06 8e-06 8e-06 
8e-06 8e-06 8e-06 8e-06 8e-06 8e-06 8e-06 8e-06 8e-06 
8e-06 8e-06 8e-06 8e-06 8e-06 8e-06 8e-06 8e-06 8e-06 
8e-06 8e-06 8e-06 8e-06 8e-06 8e-06 8e-06 8e-06 8e-06 
8e-06 8e-06 8e-06 8e-06 8e-06 8e-06 8e-06 8e-06 8e-06 
8e-06 8e-06 8e-06 8e-06 8e-06 8e-06 8e-06 8e-06 8e-06 
8e-06 8e-06 8e-06 8e-06 8e-06 8e-06 8e-06 8e-06 8e-06 
8e-06 8e-06 8e-06 8e-06 8e-06 8e-06 8e-06 8e-06 8e-06 
8e-06 8e-06 8e-06 8e-06 8e-06 8e-06 8e-06 8e-06 8e-06 
8e-06 8e-06 8e-06 8e-06 8e-06 8e-06 8e-06 8e-06 8e-06 
8e-06 8e-06 8e-06 8e-06 8e-06 8e-06 8e-06 8e-06 8e-06 
8e-06 8e-06 8e-06 8e-06 8e-06 8e-06 8e-06 8e-06 8e-06 
8e-06 8e-06 8e-06 8e-06 8e-06 8e-06 8e-06 8e-06 8e-06 
8e-06 8e-06 8e-06 8e-06 8e-06 8e-06 8e-06 8e-06 8e-06 
8e-06 8e-06 8e-06 8e-06 8e-06 8e-06 8e-06 8e-06 8e-06 
8e-06 8e-06 8e-06 8e-06 8e-06 8e-06 8e-06 8e-06 8e-06 
8e-06 8e-06 8e-06 8e-06 8e-06 8e-06 8e-06 8e-06 8e-06 
8e-06 8e-06 8e-06 8e-06 8e-06 8e-06 8e-06 8e-06 8e-06 
8e-06 8e-06 8e-06 8e-06 8e-06 8e-06 8e-06 8e-06 8e-06 
8e-06 8e-06 8e-06 8e-06 8e-06 8e-06 8e-06 8e-06 8e-06 
8e-06 8e-06 8e-06 8e-06 8e-06 8e-06 8e-06 8e-06 8e-06 
8e-06 8e-06 8e-06 8e-06 8e-06 8e-06 8e-06 8e-06 8e-06 
8e-06 8e-06 8e-06 8e-06 8e-06 8e-06 8e-06 8e-06 8e-06 
8e-06 8e-06 8e-06 8e-06 8e-06 8e-06 8e-06 8e-06 8e-06 
8e-06 8e-06 8e-06 8e-06 8e-06 8e-06 8e-06 8e-06 8e-06 
8e-06 8e-06 8e-06 8e-06 8e-06 8e-06 8e-06 8e-06 8e-06 
8e-06 8e-06 8e-06 8e-06 8e-06 8e-06 8e-06 8e-06 8e-06 
8e-06 8e-06 8e-06 8e-06 8e-06 8e-06 8e-06 8e-06 8e-06 
8e-06 8e-06 8e-06 8e-06 8e-06 8e-06 8e-06 8e-06 8e-06 
8e-06 8e-06 8e-06 8e-06 8e-06 8e-06 8e-06 8e-06 8e-06 
8e-06 8e-06 8e-06 8e-06 8e-06 8e-06 8e-06 8e-06 8e-06 
8e-06 8e-06 8e-06 8e-06 8e-06 8e-06 8e-06 8e-06 8e-06 
8e-06 8e-06 8e-06 8e-06 8e-06 8e-06 8e-06 8e-06 8e-06 
8e-06 8e-06 8e-06 8e-06 8e-06 8e-06 8e-06 8e-06 8e-06 
8e-06 8e-06 8e-06 8e-06 8e-06 8e-06 8e-06 8e-06 8e-06 
8e-06 8e-06 8e-06 8e-06 8e-06 8e-06 8e-06 8e-06 8e-06 
8e-06 8e-06 8e-06 8e-06 8e-06 8e-06 8e-06 8e-06 8e-06 
8e-06 8e-06 8e-06 8e-06 8e-06 8e-06 8e-06 8e-06 8e-06 
8e-06 8e-06 8e-06 8e-06 8e-06 8e-06 8e-06 8e-06 8e-06 
8e-06 8e-06 8e-06 8e-06 8e-06 8e-06 8e-06 8e-06 8e-06 
8e-06 8e-06 8e-06 8e-06 8e-06 8e-06 8e-06 8e-06 8e-06 
8e-06 8e-06 8e-06 8e-06 8e-06 8e-06 8e-06 8e-06 8e-06 
8e-06 8e-06 8e-06 8e-06 8e-06 8e-06 8e-06 8e-06 8e-06 
8e-06 8e-06 8e-06 8e-06 8e-06 8e-06 8e-06 8e-06 8e-06 
8e-06 8e-06 8e-06 8e-06 8e-06 8e-06 8e-06 8e-06 8e-06 
8e-06 8e-06 8e-06 8e-06 8e-06 8e-06 8e-06 8e-06 8e-06 
8e-06 8e-06 8e-06 8e-06 8e-06 8e-06 8e-06 8e-06 8e-06 
8e-06 8e-06 8e-06 8e-06 8e-06 8e-06 8e-06 8e-06 8e-06 
8e-06 8e-06 8e-06 8e-06 8e-06 8e-06 8e-06 8e-06 8e-06 
8e-06 8e-06 8e-06 8e-06 8e-06 8e-06 8e-06 8e-06 8e-06 
8e-06 8e-06 8e-06 8e-06 8e-06 8e-06 8e-06 8e-06 8e-06 
8e-06 8e-06 8e-06 8e-06 8e-06 8e-06 8e-06 8e-06 8e-06 