# vtk DataFile Version 4.1
vtk output
ASCII
DATASET POLYDATA
POINTS 381 float
0.058694 0.049944 0.019693 0.058194 0.052193 0.020443 0.056444 0.055693 0.016943 
0.056194 0.056194 0.016693 0.057444 0.054943 0.020193 0.057694 0.053943 0.020443 
0.056194 0.056444 0.016943 0.055693 0.057444 0.016443 0.057194 0.055693 0.020693 
0.056694 0.057194 0.020193 0.054943 0.059444 0.016443 0.057694 0.054693 0.022943 
0.055693 0.059693 0.019693 0.057194 0.056444 0.022443 0.054443 0.060443 0.016443 
0.057944 0.053693 0.023943 0.054943 0.061193 0.019443 0.053943 0.061443 0.016443 
0.056194 0.059444 0.022443 0.054693 0.061943 0.019193 0.057444 0.054693 0.025194 
0.053193 0.062443 0.016193 0.055443 0.060943 0.022193 0.054443 0.062693 0.019443 
0.052943 0.063193 0.016443 0.054193 0.063443 0.019443 0.053443 0.064194 0.018193 
0.052943 0.064194 0.017443 0.054693 0.063193 0.022193 0.051943 0.064444 0.016193 
0.053443 0.064444 0.018943 0.053693 0.064194 0.018943 0.056694 0.057694 0.025944 
0.056194 0.059194 0.025944 0.051943 0.065444 0.016693 0.052943 0.065194 0.019443 
0.052443 0.064944 0.016943 0.056444 0.057944 0.025944 0.057694 0.053943 0.027193 
0.053943 0.064694 0.022193 0.050944 0.060943 0.009693 0.052943 0.065944 0.019443 
0.051694 0.065694 0.017693 0.055693 0.061443 0.025694 0.049944 0.061943 0.009443 
0.050194 0.061693 0.009443 0.052943 0.066194 0.019443 0.056694 0.057694 0.027443 
0.056694 0.056694 0.027443 0.054693 0.062693 0.025694 0.052943 0.066944 0.021943 
0.053193 0.066444 0.021943 0.052193 0.067444 0.019693 0.049444 0.067444 0.014944 
0.049694 0.067194 0.014944 0.054193 0.064944 0.025194 0.049194 0.067944 0.015194 
0.048194 0.066944 0.012443 0.048194 0.069444 0.015693 0.052943 0.067944 0.024443 
0.048694 0.070444 0.017193 0.046693 0.067694 0.011694 0.046943 0.070444 0.015194 
0.046193 0.068444 0.011444 0.047193 0.070194 0.015444 0.051694 0.069694 0.022943 
0.046443 0.070194 0.014693 0.045693 0.070444 0.014193 0.045693 0.069944 0.012693 
0.045943 0.069444 0.012443 0.045943 0.069444 0.012944 0.047193 0.072193 0.017443 
0.045193 0.070194 0.013194 0.045943 0.069694 0.011444 0.044943 0.071194 0.013943 
0.046693 0.069944 0.009693 0.045193 0.070444 0.011694 0.045943 0.070694 0.010693 
0.043694 0.071943 0.013444 0.046193 0.073943 0.018193 0.044443 0.071943 0.011943 
0.043444 0.072693 0.014443 0.043694 0.073193 0.015444 0.047944 0.074693 0.021443 
0.047944 0.074943 0.021193 0.042444 0.073443 0.013444 0.046693 0.074943 0.019693 
0.046943 0.075943 0.021193 0.047193 0.075693 0.021443 0.044693 0.075443 0.018193 
0.048694 0.074693 0.023943 0.046693 0.075943 0.021193 0.039943 0.075193 0.014693 
0.040694 0.074693 0.013943 0.049694 0.073693 0.028944 0.041194 0.075693 0.012193 
0.041444 0.076693 0.018443 0.042194 0.076693 0.017943 0.041694 0.076693 0.017943 
0.039693 0.075943 0.016193 0.039943 0.075943 0.013194 0.044943 0.077943 0.021943 
0.038693 0.075943 0.013943 0.041194 0.076943 0.018693 0.037943 0.075693 0.014693 
0.038443 0.075943 0.015194 0.041194 0.076943 0.017443 0.040444 0.076693 0.017193 
0.047193 0.076443 0.026194 0.048444 0.075193 0.028944 0.043694 0.078693 0.021193 
0.043194 0.078693 0.019943 0.043194 0.078443 0.019943 0.041694 0.077943 0.018693 
0.037693 0.076443 0.015943 0.039193 0.077443 0.017443 0.037943 0.076443 0.016193 
0.043944 0.078943 0.022193 0.043944 0.078943 0.021443 0.041194 0.078443 0.018943 
0.039193 0.078193 0.017943 0.040694 0.078193 0.018443 0.043444 0.079694 0.022443 
0.039943 0.078693 0.018693 0.039693 0.078693 0.018693 0.037193 0.077693 0.017693 
0.045693 0.078193 0.025694 0.046693 0.077193 0.028694 0.041694 0.080194 0.021443 
0.041694 0.080194 0.021193 0.040694 0.079694 0.019943 0.040194 0.079694 0.019693 
0.044193 0.079444 0.023943 0.044193 0.079444 0.024443 0.037443 0.078443 0.017943 
0.044443 0.079444 0.025444 0.044693 0.079194 0.025694 0.045193 0.078943 0.026194 
0.041694 0.080694 0.022443 0.041444 0.080694 0.021943 0.043194 0.079694 0.025694 
0.044693 0.079444 0.026194 0.045693 0.078193 0.027943 0.042194 0.080694 0.023693 
0.045193 0.078943 0.027943 0.038443 0.081194 0.020693 0.038193 0.080694 0.020693 
0.042194 0.080694 0.024943 0.043444 0.079944 0.027693 0.044193 0.079694 0.027693 
0.040194 0.081944 0.023693 0.039693 0.081944 0.023193 0.038193 0.081944 0.021193 
0.037943 0.081944 0.020943 0.043444 0.079194 0.029694 0.043694 0.079444 0.029194 
0.039193 0.082194 0.023443 0.040944 0.081444 0.026194 0.041444 0.081194 0.027443 
0.042694 0.079694 0.029694 0.038943 0.082444 0.023693 0.036693 0.082694 0.021443 
0.042194 0.079444 0.030443 0.035694 0.082944 0.022193 0.035444 0.082944 0.021943 
0.039693 0.081944 0.026943 0.039693 0.081944 0.026693 0.040694 0.079944 0.030693 
0.040694 0.079694 0.030943 0.027443 0.079694 0.017943 0.028694 0.080194 0.018193 
0.036943 0.082944 0.024693 0.038193 0.082444 0.027193 0.034194 0.082694 0.021193 
0.038693 0.081444 0.028694 0.038693 0.081694 0.028444 0.039443 0.080194 0.030693 
0.038693 0.078193 0.032193 0.039193 0.078443 0.032193 0.039693 0.078193 0.032694 
0.040444 0.079194 0.031693 0.026444 0.079944 0.018443 0.029694 0.081694 0.019693 
0.029944 0.081694 0.019443 0.037193 0.081194 0.029694 0.035194 0.083444 0.022943 
0.033194 0.083444 0.022193 0.037443 0.082444 0.027443 0.037943 0.081444 0.029444 
0.037943 0.082194 0.027943 0.038693 0.080694 0.030443 0.037693 0.080444 0.030693 
0.037693 0.077693 0.033194 0.037443 0.077943 0.032944 0.038693 0.077693 0.033194 
0.025444 0.079944 0.018693 0.034944 0.083194 0.025944 0.035444 0.080944 0.029694 
0.028193 0.081194 0.019443 0.035194 0.082944 0.027193 0.029694 0.082444 0.020693 
0.035944 0.082444 0.027693 0.036194 0.082444 0.027943 0.036693 0.081444 0.029444 
0.036194 0.079444 0.031693 0.035944 0.074443 0.035694 0.037193 0.080194 0.031193 
0.036693 0.079194 0.031943 0.036943 0.078693 0.032694 0.036943 0.079194 0.032193 
0.037193 0.078693 0.032694 0.037443 0.078943 0.032444 0.037693 0.078443 0.032944 
0.037943 0.078443 0.032944 0.035194 0.073443 0.035694 0.034694 0.073193 0.035944 
0.032694 0.082694 0.026693 0.017693 0.073443 0.017693 0.017943 0.073443 0.017443 
0.018443 0.073943 0.017193 0.025194 0.080194 0.019443 0.025694 0.080944 0.020193 
0.025444 0.080694 0.019693 0.026444 0.081444 0.020193 0.026943 0.081444 0.019693 
0.028694 0.082444 0.021193 0.033694 0.082194 0.028444 0.035194 0.082194 0.028444 
0.030443 0.083194 0.022193 0.035944 0.074693 0.035694 0.033444 0.077193 0.033194 
0.033944 0.076693 0.033694 0.032694 0.076693 0.033194 0.029944 0.070444 0.035694 
0.031693 0.081944 0.028444 0.031443 0.082194 0.027693 0.032193 0.082444 0.027443 
0.023443 0.079944 0.020193 0.023693 0.080194 0.019693 0.024443 0.080694 0.020443 
0.024443 0.080194 0.019693 0.026693 0.082194 0.021693 0.028694 0.082944 0.022193 
0.028444 0.082694 0.021943 0.016193 0.072193 0.018193 0.015693 0.071943 0.018443 
0.015444 0.071443 0.018943 0.032694 0.079444 0.031443 0.033194 0.078443 0.032694 
0.033444 0.077943 0.032944 0.030943 0.074443 0.034444 0.031693 0.073943 0.035194 
0.029194 0.073693 0.034444 0.030443 0.073443 0.034694 0.030194 0.073443 0.034694 
0.029694 0.072943 0.034694 0.029944 0.072443 0.035444 0.032193 0.071943 0.036443 
0.026943 0.082194 0.024193 0.028193 0.082694 0.023443 0.028944 0.080694 0.028944 
0.029194 0.081194 0.028694 0.030443 0.081444 0.028694 0.030943 0.081444 0.028944 
0.026444 0.082444 0.022943 0.023443 0.080694 0.021443 0.023193 0.080444 0.021193 
0.025694 0.081944 0.022693 0.025194 0.081694 0.022443 0.023693 0.080444 0.020693 
0.027943 0.078943 0.030194 0.027693 0.078193 0.030693 0.015444 0.072443 0.019443 
0.015444 0.072693 0.019943 0.014443 0.070444 0.019443 0.013943 0.070194 0.019693 
0.029194 0.078193 0.031693 0.027693 0.074693 0.033194 0.029444 0.077193 0.032444 
0.029944 0.077693 0.032193 0.030693 0.077693 0.032444 0.029694 0.076193 0.033444 
0.029694 0.076443 0.033194 0.030443 0.077443 0.032694 0.026943 0.073193 0.033694 
0.024443 0.072943 0.032694 0.022443 0.069944 0.032193 0.027693 0.073443 0.033944 
0.027943 0.073193 0.034194 0.028193 0.073443 0.034194 0.025444 0.080944 0.025944 
0.026693 0.081944 0.025444 0.024693 0.080944 0.025194 0.024693 0.081194 0.024693 
0.025694 0.081694 0.024693 0.025444 0.080944 0.025944 0.026693 0.081944 0.025444 
0.026194 0.081194 0.026444 0.025944 0.080444 0.027693 0.026943 0.080194 0.028694 
0.027693 0.080444 0.028694 0.020443 0.078693 0.021443 0.023693 0.081194 0.022193 
0.026444 0.079194 0.029694 0.025944 0.078693 0.029694 0.026943 0.078443 0.030443 
0.015194 0.072943 0.020693 0.026194 0.076693 0.031693 0.014944 0.072943 0.021193 
0.014693 0.072193 0.020443 0.021693 0.074443 0.030194 0.014193 0.071943 0.021193 
0.013943 0.071693 0.021193 0.013444 0.069944 0.019693 0.013694 0.070194 0.020193 
0.021943 0.073443 0.030943 0.021443 0.073193 0.030693 0.012944 0.069444 0.020693 
0.013444 0.070444 0.021693 0.020943 0.072693 0.030693 0.022943 0.074193 0.031193 
0.012193 0.068194 0.021193 0.021443 0.072193 0.031193 0.023443 0.073693 0.031693 
0.021443 0.071443 0.031693 0.024193 0.073943 0.031943 0.021693 0.070944 0.031943 
0.018943 0.070944 0.030194 0.021193 0.070194 0.031943 0.020443 0.069694 0.031693 
0.019693 0.068944 0.031943 0.013444 0.064944 0.027693 0.021693 0.078943 0.025944 
0.024693 0.080194 0.026943 0.023193 0.079944 0.025944 0.023443 0.079944 0.025944 
0.024193 0.081194 0.024943 0.024943 0.078943 0.028944 0.024943 0.079694 0.028193 
0.024693 0.080194 0.026943 0.021443 0.079444 0.023943 0.021193 0.078693 0.025944 
0.021193 0.078193 0.026444 0.020193 0.077693 0.026194 0.021193 0.075943 0.029194 
0.020193 0.076443 0.027443 0.018693 0.075693 0.026444 0.016693 0.073443 0.026194 
0.019943 0.075693 0.027943 0.020943 0.074693 0.029944 0.019693 0.074943 0.028193 
0.016193 0.072443 0.026693 0.015194 0.072443 0.025194 0.014443 0.072443 0.023193 
0.014944 0.072193 0.025194 0.014944 0.071943 0.025444 0.014443 0.072193 0.023443 
0.011694 0.068444 0.020693 0.015444 0.071693 0.026194 0.013943 0.071194 0.023693 
0.014944 0.071194 0.026194 0.013694 0.070694 0.023943 0.013444 0.070444 0.023693 
0.018943 0.072443 0.029194 0.016193 0.070694 0.027943 0.018943 0.072193 0.029444 
0.018443 0.072193 0.029194 0.017443 0.071693 0.028694 0.015194 0.070694 0.026693 
0.011694 0.067444 0.022943 0.013194 0.069694 0.024193 0.015693 0.070444 0.027443 
0.011694 0.067194 0.023193 0.012693 0.068694 0.024443 0.012944 0.068944 0.024693 
0.013444 0.068944 0.025694 0.012944 0.068444 0.025444 0.013694 0.065444 0.027943 
0.012193 0.063694 0.027193 0.012443 0.063694 0.027193 0.0569968	0.0526935 0.0176934

VERTICES 381 762
1 0 
1 1 
1 2 
1 3 
1 4 
1 5 
1 6 
1 7 
1 8 
1 9 
1 10 
1 11 
1 12 
1 13 
1 14 
1 15 
1 16 
1 17 
1 18 
1 19 
1 20 
1 21 
1 22 
1 23 
1 24 
1 25 
1 26 
1 27 
1 28 
1 29 
1 30 
1 31 
1 32 
1 33 
1 34 
1 35 
1 36 
1 37 
1 38 
1 39 
1 40 
1 41 
1 42 
1 43 
1 44 
1 45 
1 46 
1 47 
1 48 
1 49 
1 50 
1 51 
1 52 
1 53 
1 54 
1 55 
1 56 
1 57 
1 58 
1 59 
1 60 
1 61 
1 62 
1 63 
1 64 
1 65 
1 66 
1 67 
1 68 
1 69 
1 70 
1 71 
1 72 
1 73 
1 74 
1 75 
1 76 
1 77 
1 78 
1 79 
1 80 
1 81 
1 82 
1 83 
1 84 
1 85 
1 86 
1 87 
1 88 
1 89 
1 90 
1 91 
1 92 
1 93 
1 94 
1 95 
1 96 
1 97 
1 98 
1 99 
1 100 
1 101 
1 102 
1 103 
1 104 
1 105 
1 106 
1 107 
1 108 
1 109 
1 110 
1 111 
1 112 
1 113 
1 114 
1 115 
1 116 
1 117 
1 118 
1 119 
1 120 
1 121 
1 122 
1 123 
1 124 
1 125 
1 126 
1 127 
1 128 
1 129 
1 130 
1 131 
1 132 
1 133 
1 134 
1 135 
1 136 
1 137 
1 138 
1 139 
1 140 
1 141 
1 142 
1 143 
1 144 
1 145 
1 146 
1 147 
1 148 
1 149 
1 150 
1 151 
1 152 
1 153 
1 154 
1 155 
1 156 
1 157 
1 158 
1 159 
1 160 
1 161 
1 162 
1 163 
1 164 
1 165 
1 166 
1 167 
1 168 
1 169 
1 170 
1 171 
1 172 
1 173 
1 174 
1 175 
1 176 
1 177 
1 178 
1 179 
1 180 
1 181 
1 182 
1 183 
1 184 
1 185 
1 186 
1 187 
1 188 
1 189 
1 190 
1 191 
1 192 
1 193 
1 194 
1 195 
1 196 
1 197 
1 198 
1 199 
1 200 
1 201 
1 202 
1 203 
1 204 
1 205 
1 206 
1 207 
1 208 
1 209 
1 210 
1 211 
1 212 
1 213 
1 214 
1 215 
1 216 
1 217 
1 218 
1 219 
1 220 
1 221 
1 222 
1 223 
1 224 
1 225 
1 226 
1 227 
1 228 
1 229 
1 230 
1 231 
1 232 
1 233 
1 234 
1 235 
1 236 
1 237 
1 238 
1 239 
1 240 
1 241 
1 242 
1 243 
1 244 
1 245 
1 246 
1 247 
1 248 
1 249 
1 250 
1 251 
1 252 
1 253 
1 254 
1 255 
1 256 
1 257 
1 258 
1 259 
1 260 
1 261 
1 262 
1 263 
1 264 
1 265 
1 266 
1 267 
1 268 
1 269 
1 270 
1 271 
1 272 
1 273 
1 274 
1 275 
1 276 
1 277 
1 278 
1 279 
1 280 
1 281 
1 282 
1 283 
1 284 
1 285 
1 286 
1 287 
1 288 
1 289 
1 290 
1 291 
1 292 
1 293 
1 294 
1 295 
1 296 
1 297 
1 298 
1 299 
1 300 
1 301 
1 302 
1 303 
1 304 
1 305 
1 306 
1 307 
1 308 
1 309 
1 310 
1 311 
1 312 
1 313 
1 314 
1 315 
1 316 
1 317 
1 318 
1 319 
1 320 
1 321 
1 322 
1 323 
1 324 
1 325 
1 326 
1 327 
1 328 
1 329 
1 330 
1 331 
1 332 
1 333 
1 334 
1 335 
1 336 
1 337 
1 338 
1 339 
1 340 
1 341 
1 342 
1 343 
1 344 
1 345 
1 346 
1 347 
1 348 
1 349 
1 350 
1 351 
1 352 
1 353 
1 354 
1 355 
1 356 
1 357 
1 358 
1 359 
1 360 
1 361 
1 362 
1 363 
1 364 
1 365 
1 366 
1 367 
1 368 
1 369 
1 370 
1 371 
1 372 
1 373 
1 374 
1 375 
1 376 
1 377 
1 378 
1 379 
1 380

POINT_DATA 381
FIELD FieldData 2
LAT 1 381 float
33.5 35.5 35.5 40 37 37 42.5 41 43 
42.5 34 42 44 44 33.5 42.5 39.5 33.5 
48 34.5 36 34.5 48.5 39.5 34.5 39.5 34.5 
34.5 45 39 34.5 34.5 35 39.5 40 34.5 
35 35 37 43 33 34.5 35 47 41.5 
41.5 35 35.5 35 53.5 40.5 40.5 39.5 42 
42 49 42 46.5 48 50 54 56.5 52.5 
57 52.5 43.5 56 56.5 57.5 56.5 56.5 61.5 
58.5 58 59.5 58.5 58.5 58.5 66 64 60 
67 67 60.5 60.5 64 58.5 62 62 57.5 
53 64 61 63.5 54.5 59.5 60 57.5 61 
60 60 64 61 60 60.5 60.5 61.5 61 
60 60 57 57 57 60 60.5 60 60.5 
57 57 60 60.5 62 57 62 62 60.5 
57.5 63 56.5 56.5 59.5 59.5 57.5 53.5 61 
53.5 53.5 53.5 57.5 57.5 53 53.5 60 57.5 
57.5 59 59 57.5 54 54 64 64 59.5 
59.5 62.5 59 63.5 59.5 59 58 63.5 61.5 
59.5 63.5 63.5 65.5 65.5 59.5 59.5 85.5 83 
63 63 67 65 66 64.5 65.5 65.5 64 
63.5 81 75 75 63 63.5 69 63 66.5 
62.5 65.5 67.5 68.5 68.5 65 81 62 62 
78.5 59 74.5 59 59 63 67 68.5 67 
67 67 67 67 67 67 67 68.5 68.5 
63.5 99 99 100.5 81.5 79.5 79.5 79.5 79.5 
75 59.5 59 74.5 68.5 73 76.5 73 82 
68 68 67.5 80.5 80.5 78.5 81.5 76.5 76 
75.5 95.5 95.5 96.5 72 72.5 73 81 76 
81.5 79.5 79.5 81 81 79 84.5 80 78.5 
78.5 76 75 81 78.5 78.5 80.5 79 78.5 
76.5 76.5 92.5 92.5 95.5 95.5 73.5 84.5 77 
73.5 73.5 80 80 73.5 83.5 85.5 90 81.5 
81 81.5 89.5 85 83.5 83.5 85.5 89.5 85 
89.5 88 83.5 81.5 86 78.5 83.5 78.5 77.5 
91 78.5 91 91 83.5 92.5 92.5 95.5 95.5 
83.5 83.5 96.5 92 83.5 84 99.5 83.5 84 
90 83.5 89.5 85 90 90 90 94.5 89.5 
91.5 90.5 90.5 83.5 82.5 88.5 91.5 84 85.5 
89.5 82.5 84.5 83.5 83.5 93 84.5 83.5 83.5 
91 97.5 95 97.5 97 95 99 97 92 
97 93 93 84.5 91.5 84.5 84.5 85.5 97 
98.5 93.5 97 102.5 94 94 94 94.5 94.5 
94 94 35.5
METADATA
INFORMATION 0

Active 1 381 float
0 0 0 0 0 0 0 0 0 
0 0 0 0 0 0 0 0 0 
0 0 0 0 0 0 0 0 0 
0 0 0 0 0 0 0 0 0 
0 0 0 0 0 0 0 0 0 
0 0 0 0 0 0 0 0 0 
0 0 0 0 0 0 0 0 0 
0 0 0 0 0 0 0 0 0 
0 0 0 0 0 0 0 0 0 
0 0 0 0 0 0 0 0 0 
0 0 0 0 0 0 0 0 0 
0 0 0 0 0 0 0 0 0 
0 0 0 0 0 0 0 0 0 
0 0 0 0 0 0 0 0 0 
0 0 0 0 0 0 0 0 0 
0 0 0 0 0 0 0 0 0 
0 0 0 0 0 0 0 0 0 
0 0 0 0 0 0 0 0 0 
0 0 0 0 0 0 0 0 0 
0 0 0 0 0 0 0 0 0 
0 0 0 0 0 0 0 0 0 
0 0 0 0 0 0 0 0 0 
0 0 0 0 0 0 0 0 0 
0 0 0 0 0 0 0 0 0 
0 0 0 0 0 0 0 0 0 
0 0 0 0 0 0 0 0 0 
0 0 0 0 0 0 0 0 0 
0 0 0 0 0 0 0 0 0 
0 0 0 0 0 0 0 0 0 
0 0 0 0 0 0 0 0 0 
0 0 0 0 0 0 0 0 0 
0 0 0 0 0 0 0 0 0 
0 0 0 0 0 0 0 0 0 
0 0 0 0 0 0 0 0 0 
0 0 0 0 0 0 0 0 0 
0 0 0 0 0 0 0 0 0 
0 0 0 0 0 0 0 0 0 
0 0 0 0 0 0 0 0 0 
0 0 0 0 0 0 0 0 0 
0 0 0 0 0 0 0 0 0 
0 0 0 0 0 0 0 0 0 
0 0 0 0 0 0 0 0 0 
0 0 0
METADATA
INFORMATION 0

