# vtk DataFile Version 3.0
Tree
ASCII
DATASET POLYDATA
POINTS 6634 float
162774 225274 273.8
162774 225274 10273.8
137774 221774 25773.8
138774 221774 26773.8
136774 219774 27773.8
137774 220774 27773.8
138774 220774 27773.8
139774 219774 28773.8
141774 219774 28773.8
142774 219774 28773.8
143774 219774 28773.8
130774 218774 29773.8
140774 218774 29773.8
131774 217774 30773.8
132774 216774 30773.8
136774 217774 30773.8
138774 217774 30773.8
139774 217774 30773.8
133774 215774 31773.8
137774 216774 31773.8
134774 214774 32773.8
135774 215774 32773.8
136774 215774 32773.8
137774 215774 32773.8
130774 212774 33773.8
131774 212774 33773.8
133774 213774 33773.8
138774 214774 33773.8
128774 212774 34773.8
129774 212774 34773.8
132774 213774 34773.8
139774 213774 34773.8
128774 212774 35773.8
138774 213774 35773.8
128774 212774 36773.8
138774 213774 36773.8
124774 211774 37773.8
125774 211774 37773.8
126774 211774 37773.8
127774 211774 37773.8
138774 213774 37773.8
124774 211774 38773.8
138774 213774 38773.8
139774 213774 38773.8
123774 210774 39773.8
137774 213774 39773.8
140774 213774 39773.8
185774 124774 39773.8
123774 210774 40773.8
136774 213774 40773.8
141774 213774 40773.8
185774 124774 40773.8
123774 209774 41773.8
136774 214774 41773.8
142774 213774 41773.8
182774 125774 41773.8
183774 125774 41773.8
184774 124774 41773.8
123774 209774 42773.8
136774 214774 42773.8
142774 213774 42773.8
181774 125774 42773.8
120774 209774 43773.8
121774 209774 43773.8
122774 209774 43773.8
135774 213774 43773.8
142774 213774 43773.8
180774 124774 43773.8
119774 208774 44773.8
134774 213774 44773.8
142774 213774 44773.8
179774 124774 44773.8
116774 207774 45773.8
118774 207774 45773.8
133774 213774 45773.8
142774 213774 45773.8
178774 125774 45773.8
117774 207774 46773.8
132774 212774 46773.8
143774 213774 46773.8
178774 125774 46773.8
116774 206774 47773.8
133774 212774 47773.8
143774 213774 47773.8
171774 151774 47773.8
172774 151774 47773.8
178774 125774 47773.8
89773.8 114774 48773.8
90773.8 114774 48773.8
91773.8 114774 48773.8
92773.8 114774 48773.8
110774 204774 48773.8
111774 204774 48773.8
114774 205774 48773.8
115774 205774 48773.8
133774 212774 48773.8
143774 212774 48773.8
173774 152774 48773.8
178774 125774 48773.8
82773.8 137774 49773.8
88773.8 116774 49773.8
89773.8 115774 49773.8
112774 203774 49773.8
114774 204774 49773.8
116774 205774 49773.8
132774 211774 49773.8
143774 212774 49773.8
173774 152774 49773.8
179774 124774 49773.8
83773.8 136774 50773.8
84773.8 137774 50773.8
84773.8 138774 50773.8
86773.8 118774 50773.8
88773.8 117774 50773.8
112774 203774 50773.8
113774 203774 50773.8
130774 211774 50773.8
131774 211774 50773.8
133774 211774 50773.8
144774 211774 50773.8
173774 153774 50773.8
173774 154774 50773.8
173774 155774 50773.8
179774 121774 50773.8
179774 122774 50773.8
179774 123774 50773.8
83773.8 136774 51773.8
87773.8 118774 51773.8
106774 200774 51773.8
111774 202774 51773.8
114774 203774 51773.8
115774 203774 51773.8
128774 209774 51773.8
129774 210774 51773.8
134774 211774 51773.8
135774 211774 51773.8
144774 211774 51773.8
174774 156774 51773.8
174774 157774 51773.8
179774 124774 51773.8
83773.8 133774 52773.8
83773.8 134774 52773.8
83773.8 135774 52773.8
84773.8 132774 52773.8
87773.8 119774 52773.8
87773.8 120774 52773.8
107774 199774 52773.8
110774 201774 52773.8
126774 209774 52773.8
127774 209774 52773.8
132774 208774 52773.8
133774 209774 52773.8
133774 210774 52773.8
136774 211774 52773.8
145774 211774 52773.8
173774 158774 52773.8
173774 159774 52773.8
179774 125774 52773.8
85773.8 129774 53773.8
85773.8 130774 53773.8
85773.8 131774 53773.8
87773.8 121774 53773.8
95773.8 96773.8 53773.8
95773.8 97773.8 53773.8
108774 199774 53773.8
109774 200774 53773.8
126774 209774 53773.8
136774 211774 53773.8
146774 211774 53773.8
148774 209774 53773.8
174774 160774 53773.8
179774 126774 53773.8
85773.8 126774 54773.8
85773.8 127774 54773.8
85773.8 128774 54773.8
86773.8 122774 54773.8
96773.8 95773.8 54773.8
97773.8 94773.8 54773.8
108774 199774 54773.8
122774 207774 54773.8
124774 207774 54773.8
125774 207774 54773.8
126774 208774 54773.8
136774 210774 54773.8
146774 210774 54773.8
147774 209774 54773.8
174774 161774 54773.8
179774 127774 54773.8
85773.8 123774 55773.8
85773.8 125774 55773.8
97773.8 93773.8 55773.8
100774 195774 55773.8
107774 198774 55773.8
119774 205774 55773.8
121774 205774 55773.8
123774 207774 55773.8
126774 207774 55773.8
136774 210774 55773.8
147774 209774 55773.8
170774 162774 55773.8
173774 162774 55773.8
179774 128774 55773.8
85773.8 124774 56773.8
97773.8 92773.8 56773.8
98773.8 91773.8 56773.8
99773.8 90773.8 56773.8
101774 194774 56773.8
107774 197774 56773.8
120774 205774 56773.8
122774 206774 56773.8
127774 207774 56773.8
136774 209774 56773.8
147774 208774 56773.8
171774 162774 56773.8
172774 162774 56773.8
173774 162774 56773.8
180774 128774 56773.8
85773.8 124774 57773.8
98773.8 191774 57773.8
99773.8 89773.8 57773.8
102774 193774 57773.8
106774 197774 57773.8
119774 204774 57773.8
128774 207774 57773.8
136774 209774 57773.8
146774 209774 57773.8
148774 207774 57773.8
174774 162774 57773.8
180774 128774 57773.8
84773.8 124774 58773.8
88773.8 113774 58773.8
99773.8 191774 58773.8
100774 89773.8 58773.8
101774 192774 58773.8
103774 194774 58773.8
104774 195774 58773.8
105774 196774 58773.8
118774 203774 58773.8
128774 207774 58773.8
136774 209774 58773.8
143774 206774 58773.8
144774 206774 58773.8
145774 207774 58773.8
146774 208774 58773.8
149774 207774 58773.8
150774 207774 58773.8
174774 163774 58773.8
180774 129774 58773.8
84773.8 125774 59773.8
87773.8 114774 59773.8
87773.8 115774 59773.8
87773.8 116774 59773.8
89773.8 110774 59773.8
89773.8 111774 59773.8
89773.8 112774 59773.8
94773.8 189774 59773.8
97773.8 189774 59773.8
98773.8 190774 59773.8
100774 89773.8 59773.8
100774 191774 59773.8
117774 202774 59773.8
127774 206774 59773.8
136774 208774 59773.8
151774 206774 59773.8
175774 162774 59773.8
180774 130774 59773.8
180774 131774 59773.8
83773.8 126774 60773.8
84773.8 118774 60773.8
85773.8 118774 60773.8
86773.8 117774 60773.8
89773.8 108774 60773.8
89773.8 109774 60773.8
90773.8 107774 60773.8
91773.8 104774 60773.8
91773.8 105774 60773.8
91773.8 106774 60773.8
92773.8 103774 60773.8
92773.8 186774 60773.8
93773.8 100774 60773.8
93773.8 101774 60773.8
93773.8 102774 60773.8
94773.8 99773.8 60773.8
95773.8 188774 60773.8
96773.8 188774 60773.8
100774 89773.8 60773.8
114774 202774 60773.8
115774 202774 60773.8
117774 201774 60773.8
127774 205774 60773.8
137774 207774 60773.8
151774 205774 60773.8
174774 164774 60773.8
175774 156774 60773.8
175774 163774 60773.8
176774 157774 60773.8
176774 162774 60773.8
177774 160774 60773.8
177774 161774 60773.8
180774 132774 60773.8
80773.8 139774 61773.8
81773.8 138774 61773.8
82773.8 131774 61773.8
83773.8 126774 61773.8
83773.8 130774 61773.8
87773.8 117774 61773.8
93773.8 185774 61773.8
95773.8 96773.8 61773.8
95773.8 97773.8 61773.8
95773.8 98773.8 61773.8
96773.8 95773.8 61773.8
96773.8 187774 61773.8
100774 89773.8 61773.8
116774 201774 61773.8
128774 205774 61773.8
137774 207774 61773.8
138774 207774 61773.8
150774 205774 61773.8
151774 205774 61773.8
174774 165774 61773.8
177774 158774 61773.8
177774 159774 61773.8
181774 132774 61773.8
79773.8 140774 62773.8
79773.8 141774 62773.8
79773.8 142774 62773.8
79773.8 143774 62773.8
81773.8 132774 62773.8
81773.8 133774 62773.8
81773.8 134774 62773.8
81773.8 135774 62773.8
81773.8 136774 62773.8
81773.8 137774 62773.8
83773.8 126774 62773.8
83773.8 127774 62773.8
83773.8 128774 62773.8
83773.8 129774 62773.8
85773.8 118774 62773.8
86773.8 117774 62773.8
94773.8 185774 62773.8
96773.8 187774 62773.8
97773.8 94773.8 62773.8
98773.8 92773.8 62773.8
98773.8 93773.8 62773.8
99773.8 90773.8 62773.8
99773.8 91773.8 62773.8
101774 88773.8 62773.8
115774 198774 62773.8
116774 201774 62773.8
128774 205774 62773.8
135774 204774 62773.8
136774 205774 62773.8
136774 206774 62773.8
139774 207774 62773.8
147774 204774 62773.8
148774 204774 62773.8
149774 205774 62773.8
152774 204774 62773.8
174774 168774 62773.8
174774 169774 62773.8
177774 154774 62773.8
177774 156774 62773.8
177774 157774 62773.8
178774 155774 62773.8
181774 133774 62773.8
78773.8 147774 63773.8
79773.8 144774 63773.8
79773.8 146774 63773.8
83773.8 125774 63773.8
84773.8 123774 63773.8
85773.8 119774 63773.8
85773.8 122774 63773.8
90773.8 181774 63773.8
91773.8 182774 63773.8
92773.8 183774 63773.8
93773.8 184774 63773.8
95773.8 186774 63773.8
102774 87773.8 63773.8
113774 76773.8 63773.8
114774 75773.8 63773.8
116774 199774 63773.8
116774 200774 63773.8
126774 204774 63773.8
127774 204774 63773.8
129774 205774 63773.8
130774 205774 63773.8
131774 205774 63773.8
140774 207774 63773.8
152774 203774 63773.8
173774 173774 63773.8
174774 170774 63773.8
174774 171774 63773.8
174774 172774 63773.8
177774 153774 63773.8
180774 137774 63773.8
181774 134774 63773.8
77773.8 148774 64773.8
77773.8 154774 64773.8
78773.8 154774 64773.8
79773.8 145774 64773.8
79773.8 154774 64773.8
83773.8 124774 64773.8
85773.8 119774 64773.8
85773.8 120774 64773.8
85773.8 121774 64773.8
89773.8 180774 64773.8
96773.8 187774 64773.8
103774 86773.8 64773.8
104774 85773.8 64773.8
105774 84773.8 64773.8
109774 78773.8 64773.8
111774 78773.8 64773.8
112774 77773.8 64773.8
115774 75773.8 64773.8
116774 74773.8 64773.8
116774 200774 64773.8
122774 204774 64773.8
123774 204774 64773.8
125774 203774 64773.8
132774 205774 64773.8
140774 206774 64773.8
153774 202774 64773.8
155774 201774 64773.8
170774 176774 64773.8
171774 176774 64773.8
172774 177774 64773.8
173774 174774 64773.8
173774 175774 64773.8
173774 176774 64773.8
178774 153774 64773.8
180774 138774 64773.8
181774 135774 64773.8
181774 136774 64773.8
77773.8 149774 65773.8
77773.8 154774 65773.8
83773.8 174774 65773.8
85773.8 118774 65773.8
88773.8 179774 65773.8
96773.8 187774 65773.8
106774 83773.8 65773.8
107774 82773.8 65773.8
108774 81773.8 65773.8
109774 80773.8 65773.8
[...]
CELL_DATA 6423
SCALARS radius float
LOOKUP_TABLE default
2.122e-314
100
100
7.94687e-311
7.94687e-311
7.94687e-311
7.94687e-311
7.94687e-311
7.94687e-311
7.94687e-311
7.94687e-311
7.94687e-311
7.94687e-311
7.94687e-311
7.94687e-311
7.94687e-311
7.94687e-311
7.94687e-311
7.94687e-311
7.94687e-311
7.94687e-311
7.94687e-311
7.94687e-311
7.94687e-311
7.94687e-311
7.94687e-311
7.94687e-311
7.94687e-311
7.94687e-311
7.94687e-311
7.94687e-311
7.94687e-311
7.94687e-311
7.94687e-311
7.94687e-311
7.94687e-311
7.94687e-311
7.94687e-311
7.94687e-311
7.94687e-311
7.94687e-311
7.94687e-311
7.94687e-311
7.94687e-311
7.94687e-311
7.94687e-311
7.94687e-311
7.94687e-311
7.94687e-311
7.94687e-311
7.94687e-311
7.94687e-311
7.94687e-311
7.94687e-311
7.94687e-311
7.94687e-311
7.94687e-311
7.94687e-311
7.94687e-311
7.94687e-311
7.94687e-311
7.94687e-311
7.94687e-311
7.94687e-311
7.94687e-311
7.94687e-311
7.94687e-311
7.94687e-311
7.94687e-311
7.94687e-311
7.94687e-311
7.94687e-311
7.94687e-311
7.94687e-311
7.94687e-311
7.94687e-311
7.94687e-311
7.94687e-311
7.94687e-311
7.94687e-311
7.94687e-311
7.94687e-311
7.94687e-311
7.94687e-311
7.94687e-311
7.94687e-311
7.94687e-311
7.94687e-311
7.94687e-311
7.94687e-311
7.94687e-311
7.94687e-311
7.94687e-311
7.94687e-311
7.94687e-311
7.94687e-311
7.94687e-311
7.94687e-311
7.94687e-311
7.94687e-311
7.94687e-311
7.94687e-311
7.94687e-311
7.94687e-311
7.94687e-311
7.94687e-311
7.94687e-311
7.94687e-311
7.94687e-311
7.94687e-311
7.94687e-311
7.94687e-311
7.94687e-311
7.94687e-311
7.94687e-311
7.94687e-311
7.94687e-311
7.94687e-311
7.94687e-311
7.94687e-311
7.94687e-311
7.94687e-311
7.94687e-311
7.94687e-311
7.94687e-311
7.94687e-311
7.94687e-311
7.94687e-311
7.94687e-311
7.94687e-311
7.94687e-311
7.94687e-311
7.94687e-311
7.94687e-311
7.94687e-311
7.94687e-311
7.94687e-311
7.94687e-311
7.94687e-311
7.94687e-311
7.94687e-311
7.94687e-311
7.94687e-311
7.94687e-311
7.94687e-311
7.94687e-311
7.94687e-311
7.94687e-311
7.94687e-311
7.94687e-311
7.94687e-311
7.94687e-311
7.94687e-311
7.94687e-311
7.94687e-311
7.94687e-311
7.94687e-311
7.94687e-311
7.94687e-311
7.94687e-311
7.94687e-311
7.94687e-311
7.94687e-311
7.94687e-311
7.94687e-311
7.94687e-311
7.94687e-311
7.94687e-311
7.94687e-311
7.94687e-311
7.94687e-311
7.94687e-311
7.94687e-311
7.94687e-311
7.94687e-311
7.94687e-311
7.94687e-311
7.94687e-311
7.94687e-311
7.94687e-311
7.94687e-311
7.94687e-311
7.94687e-311
7.94687e-311
7.94687e-311
7.94687e-311
7.94687e-311
7.94687e-311
7.94687e-311
7.94687e-311
7.94687e-311
7.94687e-311
7.94687e-311
7.94687e-311
7.94687e-311
7.94687e-311
7.94687e-311
7.94687e-311
7.94687e-311
7.94687e-311
7.94687e-311
7.94687e-311
7.94687e-311
7.94687e-311
7.94687e-311
7.94687e-311
7.94687e-311
7.94687e-311
7.94687e-311
7.94687e-311
7.94687e-311
7.94687e-311
7.94687e-311
7.94687e-311
7.94687e-311
7.94687e-311
7.94687e-311
7.94687e-311
7.94687e-311
7.94687e-311
7.94687e-311
7.94687e-311
7.94687e-311
7.94687e-311
7.94687e-311
7.94687e-311
7.94687e-311
7.94687e-311
7.94687e-311
7.94687e-311
7.94687e-311
7.94687e-311
7.94687e-311
7.94687e-311
7.94687e-311
7.94687e-311
7.94687e-311
7.94687e-311
7.94687e-311
7.94687e-311
7.94687e-311
7.94687e-311
7.94687e-311
7.94687e-311
7.94687e-311
7.94687e-311
7.94687e-311
7.94687e-311
7.94687e-311
7.94687e-311
7.94687e-311
7.94687e-311
7.94687e-311
7.94687e-311
7.94687e-311
7.94687e-311
7.94687e-311
7.94687e-311
7.94687e-311
7.94687e-311
7.94687e-311
7.94687e-311
7.94687e-311
7.94687e-311
7.94687e-311
7.94687e-311
7.94687e-311
7.94687e-311
7.94687e-311
7.94687e-311
7.94687e-311
7.94687e-311
7.94687e-311
7.94687e-311
7.94687e-311
7.94687e-311
7.94687e-311
7.94687e-311
7.94687e-311
7.94687e-311
7.94687e-311
7.94687e-311
7.94687e-311
7.94687e-311
7.94687e-311
7.94687e-311
7.94687e-311
7.94687e-311
7.94687e-311
7.94687e-311
7.94687e-311
7.94687e-311
7.94687e-311
7.94687e-311
7.94687e-311
7.94687e-311
7.94687e-311
7.94687e-311
7.94687e-311
7.94687e-311
7.94687e-311
7.94687e-311
7.94687e-311
7.94687e-311
7.94687e-311
7.94687e-311
7.94687e-311
7.94687e-311
7.94687e-311
7.94687e-311
7.94687e-311
7.94687e-311
7.94687e-311
7.94687e-311
7.94687e-311
7.94687e-311
7.94687e-311
7.94687e-311
7.94687e-311
7.94687e-311
7.94687e-311
7.94687e-311
7.94687e-311
7.94687e-311
7.94687e-311
7.94687e-311
7.94687e-311
7.94687e-311
7.94687e-311
7.94687e-311
7.94687e-311
7.94687e-311
7.94687e-311
7.94687e-311
7.94687e-311
7.94687e-311
7.94687e-311
7.94687e-311
7.94687e-311
7.94687e-311
7.94687e-311
7.94687e-311
7.94687e-311
7.94687e-311
7.94687e-311
7.94687e-311
7.94687e-311
7.94687e-311
7.94687e-311
7.94687e-311
7.94687e-311
7.94687e-311
7.94687e-311
7.94687e-311
7.94687e-311
7.94687e-311
7.94687e-311
7.94687e-311
7.94687e-311
7.94687e-311
7.94687e-311
7.94687e-311
7.94687e-311
7.94687e-311
7.94687e-311
7.94687e-311
7.94687e-311
7.94687e-311
7.94687e-311
7.94687e-311
7.94687e-311
7.94687e-311
7.94687e-311
7.94687e-311
7.94687e-311
7.94687e-311
7.94687e-311
7.94687e-311
7.94687e-311
7.94687e-311
7.94687e-311
7.94687e-311
7.94687e-311
7.94687e-311
7.94687e-311
7.94687e-311
7.94687e-311
7.94687e-311
7.94687e-311
7.94687e-311
7.94687e-311
7.94687e-311
7.94687e-311
7.94687e-311
7.94687e-311
7.94687e-311
7.94687e-311
7.94687e-311
7.94687e-311
7.94687e-311
7.94687e-311
7.94687e-311
7.94687e-311
7.94687e-311
7.94687e-311
7.94687e-311
7.94687e-311
7.94687e-311
7.94687e-311
7.94687e-311
7.94687e-311
7.94687e-311
7.94687e-311
7.94687e-311
7.94687e-311
7.94687e-311
7.94687e-311
7.94687e-311
7.94687e-311
7.94687e-311
7.94687e-311
7.94687e-311
7.94687e-311
7.94687e-311
7.94687e-311
7.94687e-311
7.94687e-311
7.94687e-311
7.94687e-311
7.94687e-311
7.94687e-311
7.94687e-311
7.94687e-311
7.94687e-311
7.94687e-311
7.94687e-311
7.94687e-311
7.94687e-311
7.94687e-311
7.94687e-311
7.94687e-311
7.94687e-311
7.94687e-311
7.94687e-311
7.94687e-311
7.94687e-311
7.94687e-311
7.94687e-311
7.94687e-311
7.94687e-311
7.94687e-311
7.94687e-311
7.94687e-311
7.94687e-311
7.94687e-311
7.94687e-311
7.94687e-311
7.94687e-311
7.94687e-311
7.94687e-311
7.94687e-311
7.94687e-311
7.94687e-311
7.94687e-311
7.94687e-311
7.94687e-311
7.94687e-311
7.94687e-311
7.94687e-311
7.94687e-311
7.94687e-311
7.94687e-311
7.94687e-311
7.94687e-311
7.94687e-311
7.94687e-311
7.94687e-311
7.94687e-311
7.94687e-311
7.94687e-311
7.94687e-311
7.94687e-311
7.94687e-311
7.94687e-311
7.94687e-311
7.94687e-311
7.94687e-311
7.94687e-311
7.94687e-311
7.94687e-311
7.94687e-311
7.94687e-311
7.94687e-311
7.94687e-311
7.94687e-311
7.94687e-311
7.94687e-311
7.94687e-311
7.94687e-311
7.94687e-311
7.94687e-311
7.94687e-311
7.94687e-311
7.94687e-311
7.94687e-311
7.94687e-311
7.94687e-311
7.94687e-311
7.94687e-311
7.94687e-311
7.94687e-311
7.94687e-311
7.94687e-311
7.94687e-311
7.94687e-311
7.94687e-311
7.94687e-311
7.94687e-311
7.94687e-311
7.94687e-311
7.94687e-311
7.94687e-311
7.94687e-311
7.94687e-311
7.94687e-311
7.94687e-311
7.94687e-311
7.94687e-311
7.94687e-311
7.94687e-311
7.94687e-311
7.94687e-311
7.94687e-311
7.94687e-311
7.94687e-311
7.94687e-311
7.94687e-311
7.94687e-311
7.94687e-311
7.94687e-311
7.94687e-311
7.94687e-311
7.94687e-311
7.94687e-311
7.94687e-311
7.94687e-311
7.94687e-311
7.94687e-311
7.94687e-311
7.94687e-311
7.94687e-311
7.94687e-311
7.94687e-311
7.94687e-311
7.94687e-311
7.94687e-311
7.94687e-311
7.94687e-311
7.94687e-311
7.94687e-311
7.94687e-311
7.94687e-311
7.94687e-311
7.94687e-311
7.94687e-311
7.94687e-311
7.94687e-311
7.94687e-311
7.94687e-311
7.94687e-311
7.94687e-311
7.94687e-311
7.94687e-311
7.94687e-311
7.94687e-311
7.94687e-311
7.94687e-311
7.94687e-311
7.94687e-311
7.94687e-311
7.94687e-311
7.94687e-311
7.94687e-311
7.94687e-311
7.94687e-311
7.94687e-311
7.94687e-311
7.94687e-311
7.94687e-311
7.94687e-311
7.94687e-311
7.94687e-311
7.94687e-311
7.94687e-311
7.94687e-311
7.94687e-311
7.94687e-311
7.94687e-311
7.94687e-311
7.94687e-311
7.94687e-311
7.94687e-311
7.94687e-311
7.94687e-311
7.94687e-311
7.94687e-311
7.94687e-311
7.94687e-311
7.94687e-311
7.94687e-311
7.94687e-311
7.94687e-311
7.94687e-311
7.94687e-311
7.94687e-311
7.94687e-311
7.94687e-311
7.94687e-311
7.94687e-311
7.94687e-311
7.94687e-311
7.94687e-311
7.94687e-311
7.94687e-311
7.94687e-311
7.94687e-311
7.94687e-311
7.94687e-311
7.94687e-311
7.94687e-311
7.94687e-311
7.94687e-311
7.94687e-311
7.94687e-311
7.94687e-311
7.94687e-311
7.94687e-311
7.94687e-311
7.94687e-311
7.94687e-311
7.94687e-311
7.94687e-311
7.94687e-311
7.94687e-311
7.94687e-311
7.94687e-311
7.94687e-311
7.94687e-311
7.94687e-311
7.94687e-311
7.94687e-311
7.94687e-311
7.94687e-311
7.94687e-311
7.94687e-311
7.94687e-311
7.94687e-311
7.94687e-311
7.94687e-311
7.94687e-311
7.94687e-311
7.94687e-311
7.94687e-311
7.94687e-311
7.94687e-311
7.94687e-311
7.94687e-311
7.94687e-311
7.94687e-311
7.94687e-311
7.94687e-311
7.94687e-311
7.94687e-311
7.94687e-311
7.94687e-311
7.94687e-311
7.94687e-311
7.94687e-311
7.94687e-311
7.94687e-311
7.94687e-311
7.94687e-311
7.94687e-311
7.94687e-311
7.94687e-311
7.94687e-311
7.94687e-311
7.94687e-311
7.94687e-311
7.94687e-311
7.94687e-311
7.94687e-311
7.94687e-311
7.94687e-311
7.94687e-311
7.94687e-311
7.94687e-311
7.94687e-311
7.94687e-311
7.94687e-311
7.94687e-311
7.94687e-311
7.94687e-311
7.94687e-311
7.94687e-311
7.94687e-311
7.94687e-311
7.94687e-311
7.94687e-311
7.94687e-311
7.94687e-311
7.94687e-311
7.94687e-311
7.94687e-311
7.94687e-311
7.94687e-311
7.94687e-311
7.94687e-311
7.94687e-311
7.94687e-311
7.94687e-311
7.94687e-311
7.94687e-311
7.94687e-311
7.94687e-311
7.94687e-311
7.94687e-311
7.94687e-311
7.94687e-311
7.94687e-311
7.94687e-311
7.94687e-311
7.94687e-311
7.94687e-311
7.94687e-311
7.94687e-311
7.94687e-311
7.94687e-311
7.94687e-311
7.94687e-311
7.94687e-311
7.94687e-311
7.94687e-311
7.94687e-311
7.94687e-311
7.94687e-311
7.94687e-311
7.94687e-311
7.94687e-311
7.94687e-311
7.94687e-311
7.94687e-311
7.94687e-311
7.94687e-311
7.94687e-311
7.94687e-311
7.94687e-311
7.94687e-311
7.94687e-311
7.94687e-311
7.94687e-311
7.94687e-311
7.94687e-311
7.94687e-311
7.94687e-311
7.94687e-311
7.94687e-311
7.94687e-311
7.94687e-311
7.94687e-311
7.94687e-311
7.94687e-311
7.94687e-311
7.94687e-311
7.94687e-311
7.94687e-311
7.94687e-311
7.94687e-311
7.94687e-311
7.94687e-311
7.94687e-311
7.94687e-311
7.94687e-311
7.94687e-311
7.94687e-311
7.94687e-311
7.94687e-311
7.94687e-311
7.94687e-311
7.94687e-311
7.94687e-311
7.94687e-311
7.94687e-311
7.94687e-311
7.94687e-311
7.94687e-311
7.94687e-311
7.94687e-311
7.94687e-311
7.94687e-311
7.94687e-311
7.94687e-311
7.94687e-311
7.94687e-311
7.94687e-311
7.94687e-311
7.94687e-311
7.94687e-311
7.94687e-311
7.94687e-311
7.94687e-311
7.94687e-311
7.94687e-311
7.94687e-311
7.94687e-311
7.94687e-311
7.94687e-311
7.94687e-311
7.94687e-311
7.94687e-311
7.94687e-311
7.94687e-311
7.94687e-311
7.94687e-311
7.94687e-311
7.94687e-311
7.94687e-311
7.94687e-311
7.94687e-311
7.94687e-311
7.94687e-311
7.94687e-311
7.94687e-311
7.94687e-311
7.94687e-311
7.94687e-311
7.94687e-311
7.94687e-311
7.94687e-311
7.94687e-311
7.94687e-311
7.94687e-311
7.94687e-311
7.94687e-311
7.94687e-311
7.94687e-311
7.94687e-311
7.94687e-311
7.94687e-311
7.94687e-311
7.94687e-311
7.94687e-311
7.94687e-311
7.94687e-311
7.94687e-311
7.94687e-311
7.94687e-311
7.94687e-311
7.94687e-311
7.94687e-311
7.94687e-311
7.94687e-311
7.94687e-311
7.94687e-311
7.94687e-311
7.94687e-311
7.94687e-311
7.94687e-311
7.94687e-311
7.94687e-311
7.94687e-311
7.94687e-311
7.94687e-311
7.94687e-311
7.94687e-311
7.94687e-311
7.94687e-311
7.94687e-311
7.94687e-311
7.94687e-311
7.94687e-311
7.94687e-311
7.94687e-311
7.94687e-311
7.94687e-311
7.94687e-311
7.94687e-311
7.94687e-311
7.94687e-311
7.94687e-311
7.94687e-311
7.94687e-311
7.94687e-311
7.94687e-311
7.94687e-311
7.94687e-311
7.94687e-311
7.94687e-311
7.94687e-311
7.94687e-311
7.94687e-311
7.94687e-311
7.94687e-311
7.94687e-311
7.94687e-311
7.94687e-311
7.94687e-311
7.94687e-311
7.94687e-311
7.94687e-311
7.94687e-311
7.94687e-311
7.94687e-311
7.94687e-311
7.94687e-311
7.94687e-311
7.94687e-311
7.94687e-311
7.94687e-311
7.94687e-311
7.94687e-311
7.94687e-311
7.94687e-311
7.94687e-311
7.94687e-311
7.94687e-311
7.94687e-311
7.94687e-311
7.94687e-311
7.94687e-311
7.94687e-311
7.94687e-311
7.94687e-311
7.94687e-311
7.94687e-311
7.94687e-311
7.94687e-311
7.94687e-311
7.94687e-311
7.94687e-311
7.94687e-311
7.94687e-311
7.94687e-311
7.94687e-311
7.94687e-311
7.94687e-311
7.94687e-311
7.94687e-311
7.94687e-311
7.94687e-311
7.94687e-311
7.94687e-311
7.94687e-311
7.94687e-311
7.94687e-311
7.94687e-311
7.94687e-311
7.94687e-311
7.94687e-311
7.94687e-311
7.94687e-311
7.94687e-311
7.94687e-311
7.94687e-311
7.94687e-311
7.94687e-311
7.94687e-311
7.94687e-311
7.94687e-311
7.94687e-311
7.94687e-311
7.94687e-311
7.94687e-311
7.94687e-311
7.94687e-311
7.94687e-311
7.94687e-311
7.94687e-311
7.94687e-311
7.94687e-311
7.94687e-311
7.94687e-311
7.94687e-311
7.94687e-311
7.94687e-311
7.94687e-311
7.94687e-311
7.94687e-311
7.94687e-311
7.94687e-311
7.94687e-311
7.94687e-311
7.94687e-311
7.94687e-311
7.94687e-311
7.94687e-311
7.94687e-311
7.94687e-311
7.94687e-311
7.94687e-311
7.94687e-311
7.94687e-311
7.94687e-311
7.94687e-311
7.94687e-311
7.94687e-311
7.94687e-311
7.94687e-311
7.94687e-311
7.94687e-311
7.94687e-311
7.94687e-311
7.94687e-311
7.94687e-311
7.94687e-311
7.94687e-311
7.94687e-311
7.94687e-311
7.94687e-311
7.94687e-311
7.94687e-311
7.94687e-311
7.94687e-311
7.94687e-311
7.94687e-311
7.94687e-311
7.94687e-311
7.94687e-311
7.94687e-311
7.94687e-311
7.94687e-311
7.94687e-311
7.94687e-311
7.94687e-311
7.94687e-311
7.94687e-311
7.94687e-311
7.94687e-311
7.94687e-311
7.94687e-311
7.94687e-311
7.94687e-311
7.94687e-311
7.94687e-311
7.94687e-311
7.94687e-311
7.94687e-311
7.94687e-311
7.94687e-311
7.94687e-311
7.94687e-311
7.94687e-311
7.94687e-311
7.94687e-311
7.94687e-311
7.94687e-311
7.94687e-311
7.94687e-311
7.94687e-311
7.94687e-311
7.94687e-311
7.94687e-311
7.94687e-311
7.94687e-311
7.94687e-311
7.94687e-311
7.94687e-311
7.94687e-311
7.94687e-311
7.94687e-311
7.94687e-311
7.94687e-311
7.94687e-311
7.94687e-311
7.94687e-311
7.94687e-311
7.94687e-311
7.94687e-311
7.94687e-311
7.94687e-311
7.94687e-311
7.94687e-311
7.94687e-311
7.94687e-311
7.94687e-311
7.94687e-311
7.94687e-311
7.94687e-311
7.94687e-311
7.94687e-311
7.94687e-311
7.94687e-311
7.94687e-311
7.94687e-311
7.94687e-311
7.94687e-311
7.94687e-311
7.94687e-311
7.94687e-311
7.94687e-311
7.94687e-311
7.94687e-311
7.94687e-311
7.94687e-311
7.94687e-311
7.94687e-311
7.94687e-311
7.94687e-311
7.94687e-311
7.94687e-311
7.94687e-311
7.94687e-311
7.94687e-311
7.94687e-311
7.94687e-311
7.94687e-311
7.94687e-311
7.94687e-311
7.94687e-311
7.94687e-311
7.94687e-311
7.94687e-311
7.94687e-311
7.94687e-311
7.94687e-311
7.94687e-311
7.94687e-311
7.94687e-311
7.94687e-311
7.94687e-311
7.94687e-311
7.94687e-311
7.94687e-311
7.94687e-311
7.94687e-311
7.94687e-311
7.94687e-311
7.94687e-311
7.94687e-311
7.94687e-311
7.94687e-311
7.94687e-311
7.94687e-311
7.94687e-311
7.94687e-311
7.94687e-311
7.94687e-311
7.94687e-311
7.94687e-311
7.94687e-311
7.94687e-311
7.94687e-311
7.94687e-311
7.94687e-311
7.94687e-311
7.94687e-311
7.94687e-311
7.94687e-311
7.94687e-311
7.94687e-311
7.94687e-311
7.94687e-311
7.94687e-311
7.94687e-311
7.94687e-311
7.94687e-311
7.94687e-311
7.94687e-311
7.94687e-311
7.94687e-311
7.94687e-311
7.94687e-311
7.94687e-311
7.94687e-311
7.94687e-311
7.94687e-311
7.94687e-311
7.94687e-311
7.94687e-311
7.94687e-311
7.94687e-311
7.94687e-311
7.94687e-311
7.94687e-311
7.94687e-311
7.94687e-311
7.94687e-311
7.94687e-311
7.94687e-311
7.94687e-311
7.94687e-311
7.94687e-311
7.94687e-311
7.94687e-311
7.94687e-311
7.94687e-311
7.94687e-311
7.94687e-311
7.94687e-311
7.94687e-311
7.94687e-311
7.94687e-311
7.94687e-311
7.94687e-311
7.94687e-311
7.94687e-311
7.94687e-311
7.94687e-311
7.94687e-311
7.94687e-311
7.94687e-311
7.94687e-311
7.94687e-311
7.94687e-311
7.94687e-311
7.94687e-311
7.94687e-311
7.94687e-311
7.94687e-311
7.94687e-311
7.94687e-311
7.94687e-311
7.94687e-311
7.94687e-311
7.94687e-311
7.94687e-311
7.94687e-311
7.94687e-311
7.94687e-311
7.94687e-311
7.94687e-311
7.94687e-311
7.94687e-311
7.94687e-311
7.94687e-311
7.94687e-311
7.94687e-311
7.94687e-311
7.94687e-311
7.94687e-311
7.94687e-311
7.94687e-311
7.94687e-311
7.94687e-311
7.94687e-311
7.94687e-311
7.94687e-311
7.94687e-311
7.94687e-311
7.94687e-311
7.94687e-311
7.94687e-311
7.94687e-311
7.94687e-311
7.94687e-311
7.94687e-311
7.94687e-311
7.94687e-311
7.94687e-311
7.94687e-311
7.94687e-311
7.94687e-311
7.94687e-311
7.94687e-311
7.94687e-311
7.94687e-311
7.94687e-311
7.94687e-311
7.94687e-311
7.94687e-311
7.94687e-311
7.94687e-311
7.94687e-311
7.94687e-311
7.94687e-311
7.94687e-311
7.94687e-311
7.94687e-311
7.94687e-311
7.94687e-311
7.94687e-311
7.94687e-311
7.94687e-311
7.94687e-311
7.94687e-311
7.94687e-311
7.94687e-311
7.94687e-311
7.94687e-311
7.94687e-311
7.94687e-311
7.94687e-311
7.94687e-311
7.94687e-311
7.94687e-311
7.94687e-311
7.94687e-311
7.94687e-311
7.94687e-311
7.94687e-311
7.94687e-311
7.94687e-311
7.94687e-311
7.94687e-311
7.94687e-311
7.94687e-311
7.94687e-311
7.94687e-311
7.94687e-311
7.94687e-311
7.94687e-311
7.94687e-311
7.94687e-311
7.94687e-311
7.94687e-311
7.94687e-311
7.94687e-311
7.94687e-311
7.94687e-311
7.94687e-311
7.94687e-311
7.94687e-311
7.94687e-311
7.94687e-311
7.94687e-311
7.94687e-311
7.94687e-311
7.94687e-311
7.94687e-311
7.94687e-311
7.94687e-311
7.94687e-311
7.94687e-311
7.94687e-311
7.94687e-311
7.94687e-311
7.94687e-311
7.94687e-311
7.94687e-311
7.94687e-311
7.94687e-311
7.94687e-311
7.94687e-311
7.94687e-311
7.94687e-311
7.94687e-311
7.94687e-311
7.94687e-311
7.94687e-311
7.94687e-311
7.94687e-311
7.94687e-311
7.94687e-311
7.94687e-311
7.94687e-311
7.94687e-311
7.94687e-311
7.94687e-311
7.94687e-311
7.94687e-311
7.94687e-311
7.94687e-311
7.94687e-311
7.94687e-311
7.94687e-311
7.94687e-311
7.94687e-311
7.94687e-311
7.94687e-311
7.94687e-311
7.94687e-311
7.94687e-311
7.94687e-311
7.94687e-311
7.94687e-311
7.94687e-311
7.94687e-311
7.94687e-311
7.94687e-311
7.94687e-311
7.94687e-311
7.94687e-311
7.94687e-311
7.94687e-311
7.94687e-311
7.94687e-311
7.94687e-311
7.94687e-311
7.94687e-311
7.94687e-311
7.94687e-311
7.94687e-311
7.94687e-311
7.94687e-311
7.94687e-311
7.94687e-311
7.94687e-311
7.94687e-311
7.94687e-311
7.94687e-311
7.94687e-311
7.94687e-311
7.94687e-311
7.94687e-311
7.94687e-311
7.94687e-311
7.94687e-311
7.94687e-311
7.94687e-311
7.94687e-311
7.94687e-311
7.94687e-311
7.94687e-311
7.94687e-311
7.94687e-311
7.94687e-311
7.94687e-311
7.94687e-311
7.94687e-311
7.94687e-311
7.94687e-311
7.94687e-311
7.94687e-311
7.94687e-311
7.94687e-311
7.94687e-311
7.94687e-311
7.94687e-311
7.94687e-311
7.94687e-311
7.94687e-311
7.94687e-311
7.94687e-311
7.94687e-311
7.94687e-311
7.94687e-311
7.94687e-311
7.94687e-311
7.94687e-311
7.94687e-311
7.94687e-311
7.94687e-311
7.94687e-311
7.94687e-311
7.94687e-311
7.94687e-311
7.94687e-311
7.94687e-311
7.94687e-311
7.94687e-311
7.94687e-311
7.94687e-311
7.94687e-311
7.94687e-311
7.94687e-311
7.94687e-311
7.94687e-311
7.94687e-311
7.94687e-311
7.94687e-311
7.94687e-311
7.94687e-311
7.94687e-311
7.94687e-311
7.94687e-311
7.94687e-311
7.94687e-311
7.94687e-311
7.94687e-311
7.94687e-311
7.94687e-311
7.94687e-311
7.94687e-311
7.94687e-311
7.94687e-311
7.94687e-311
7.94687e-311
7.94687e-311
7.94687e-311
7.94687e-311
7.94687e-311
7.94687e-311
7.94687e-311
7.94687e-311
7.94687e-311
7.94687e-311
7.94687e-311
7.94687e-311
7.94687e-311
7.94687e-311
7.94687e-311
7.94687e-311
7.94687e-311
7.94687e-311
7.94687e-311
7.94687e-311
7.94687e-311
7.94687e-311
7.94687e-311
7.94687e-311
7.94687e-311
7.94687e-311
7.94687e-311
7.94687e-311
7.94687e-311
7.94687e-311
7.94687e-311
7.94687e-311
7.94687e-311
7.94687e-311
7.94687e-311
7.94687e-311
7.94687e-311
7.94687e-311
7.94687e-311
7.94687e-311
7.94687e-311
7.94687e-311
7.94687e-311
7.94687e-311
7.94687e-311
7.94687e-311
7.94687e-311
7.94687e-311
7.94687e-311
7.94687e-311
7.94687e-311
7.94687e-311
7.94687e-311
7.94687e-311
7.94687e-311
7.94687e-311
7.94687e-311
7.94687e-311
7.94687e-311