# vtk DataFile Version 3.0
Tree
ASCII
DATASET POLYDATA
POINTS 1582 float
162774 225274 273.8
162774 225274 10273.8
141774 225774 23773.8
144122 214254 30497.8
143417 217710 28480.6
131774 208530 51773.8
135267 211284 44785.8
148774 204006 61773.8
132822 209356 49677.4
114774 201182 53773.8
132088 208778 51145
125774 198526 69773.8
145851 204030 60882.6
153774 195774 78005.8
150129 199571 70129
165226 189774 68773.8
118174 201932 54067.8
104254 190774 63773.8
108430 194121 60861.8
111774 189974 81773.8
154106 195983 76896.6
165258 187774 89773.8
153873 195837 77673
136462 195774 90773.8
162379 190599 70399.8
174010 176774 77773.8
105507 191778 62900.2
91773.8 179258 62773.8
167729 184239 73791.8
172058 166774 62773.8
164666 187881 88733
175890 178774 100774
104630 191075 63511.8
95773.8 181262 79773.8
108744 190697 78162.2
104774 187818 92773.8
137641 195297 90501.4
120774 193998 104774
172793 177847 77920.2
181022 165774 88773.8
144919 195627 87823.4
139774 195998 110774
171383 170647 67750.2
178058 150774 70773.8
173919 163095 68899
172054 148774 53773.8
173715 179273 98223
181998 164774 105774
95040.2 181498 64638.2
80773.8 163958 75773.8
95732.6 182585 78209.8
85505.8 174774 92773.8
143376 195738 94708.6
155774 193982 106774
177101 152281 69707.8
179202 137774 66773.8
86695.4 169802 68239.4
81541.8 159774 64773.8
104446 188068 89388.6
94773.8 184050 96773.8
124908 194631 103300
117774 196014 121774
100770 186541 92195
100774 191774 110650
141767 195915 109553
142774 195998 124774
178067 145607 68358.2
183974 135774 79773.8
179009 138349 66781.4
180010 126774 63773.8
182202 138724 76349
183998 141774 89773.8
179817 165677 87849
183774 155082 94773.8
180041 167009 105695
183998 152774 119774
83087.8 162782 65813.4
78773.8 149774 73593.8
81812.6 164390 75203
76773.8 155774 86225.8
81448.6 157839 68770.2
82353.8 144774 61773.8
155198 193086 105153
167886 188774 114774
86613.4 175343 92313.4
77773.8 167878 107774
81133 170715 101899
76325.8 156774 101774
119497 196635 120342
115774 199814 137774
84969.4 173954 95189
85577.8 182774 110774
179709 130246 64676.2
177998 116774 47773.8
141021 196249 120987
132774 197998 135774
142248 196073 123638
156774 193998 125774
136568 197193 128972
145774 195978 144774
165869 188193 111975
175182 181774 115774
178785 122971 55549
182774 128774 39885.8
183423 139678 87997.8
183998 137774 98773.8
182649 153677 117793
181998 131774 132774
183067 139878 122611
183970 131774 121774
182490 135502 128099
183218 139774 137774
182999 138492 134871
183998 157774 142774
115410 198110 134607
105998 193774 148774
79818.2 150917 73190.6
79545.8 137774 82773.8
82482.2 146967 64922.6
85533.8 127774 66773.8
183135 139287 136671
179874 132774 145774
78631 159413 102962
80773.8 140774 109950
79681.4 148369 105521
79553.8 137774 99773.8
85532.2 178847 107725
86773.8 176774 127958
141539 196537 137505
132774 198066 152774
86881.4 179843 115715
92773.8 189958 125774
85022.2 132256 65153.8
87765.8 122774 58773.8
151409 194579 126955
163066 191774 140774
91728.2 186949 125103
95773.8 190774 134874
182960 146839 141781
182002 151774 152774
169407 185754 113419
171774 185258 126774
79198.2 153449 104344
81021.8 149774 117774
173188 181844 115833
181978 167774 124774
108947 193109 147321
105774 186446 159774
182994 133439 122558
179774 118774 124806
86400.2 176693 122810
83773.8 166774 128790
180161 134913 144575
173774 131774 159970
107995 191111 151057
115774 194774 163274
80148.2 138955 100205
83553.8 125774 91773.8
133216 198435 151706
127774 200002 160774
85845.4 129411 63239.8
88353.8 130774 49773.8
145552 195725 142675
154774 192774 147954
179960 133416 145414
174002 117774 140774
85829 128240 66647.8
89505.8 114774 71773.8
132906 198177 152453
140774 195890 168774
87782.2 123726 58719.8
91585.8 116774 49773.8
171708 184664 122099
177218 179774 126774
88108.6 119891 69825.8
91657.8 110774 61773.8
183536 153772 141087
183886 162774 133774
81073.8 141565 109289
85021.8 131774 113774
179478 119773 123697
175958 109774 122774
81558.2 149270 115716
85021.8 143774 125774
106618 188218 156461
97701.8 173774 155774
176712 133218 152888
168006 119774 154774
85540.2 170759 127756
88325.8 164774 139774
177014 112774 123051
177782 106774 112774
181551 150640 152017
179022 154774 165774
102412 182996 154666
93773.8 178774 144966
173735 118950 141699
169254 109774 139774
83576.6 127653 94050.2
90285.8 113774 91773.8
87490.2 166569 136169
87577.8 153774 136774
176275 110674 122857
170774 105666 130774
82392.2 145432 62718.6
85717.8 143774 49773.8
113191 192372 160496
116774 186774 173974
170618 123807 154208
162774 122774 165978
89742.2 115574 70796.2
95485.8 104774 70773.8
114553 190245 165617
109006 179774 169774
175125 132438 156712
175774 140774 164970
81182.6 149623 117157
83017.8 155774 125774
165945 123975 162530
165814 128774 170774
82273.8 131947 96389.4
88361.8 119774 105774
99780.6 175882 156255
100774 165774 161978
178483 154415 165144
175994 156774 173774
84057.8 144597 121474
88773.8 132774 125954
112954 196210 139438
118774 199998 151774
175475 136939 161171
170774 135590 168774
98325.4 174406 155918
95485.8 163774 152774
175565 181241 125371
177786 178774 140774
139936 194909 167024
146774 189774 181178
177139 155689 169804
176774 164774 171890
87920.6 134538 124019
91773.8 122574 120774
176053 110044 122799
171774 100366 119774
177542 155307 168406
173882 147774 174774
93872.2 107574 69521.8
98317.8 97773.8 61773.8
152007 193659 146370
151774 191994 159774
176709 107194 115391
172042 94773.8 105774
90158.6 115145 93160.2
95581.8 106774 94773.8
111335 182319 169474
111774 171774 178022
142027 192953 174501
137774 193774 185042
168044 121173 155140
157270 112774 159774
88577.4 120735 104641
94349.8 112774 109774
175917 180815 134431
171258 185774 142774
183331 156953 142759
181186 168774 149774
164874 127374 169457
158774 130774 181978
88517.8 133303 125373
93773.8 128774 132970
172023 101435 119622
167774 93125.8 115774
176913 161321 171097
172774 164774 181886
101126 168891 161274
105774 162774 171258
163977 117217 155920
159774 109114 151774
93836.6 109533 92972.2
99773.8 100774 86861.8
101122 166073 161996
101774 154774 165074
173655 148827 173907
167842 140774 180774
151844 192493 155753
159774 189194 160774
174678 163186 176923
170774 153774 185290
93063 114440 107417
99589.8 104774 105774
152084 191793 159305
153774 189026 168774
172791 164485 181650
169222 165774 189774
111949 171785 177077
112774 162774 181974
168361 94445 115833
163774 86521.8 108774
94489.8 113057 109411
100774 107774 117114
154646 192805 147681
163942 189774 151774
171435 164975 184737
167190 173774 186774
93515 128905 131836
100358 122774 139774
180127 167977 148858
176774 177290 153774
96971 105494 91714.6
104774 97573.8 95773.8
104939 163165 169222
108774 153774 175970
171849 100687 119728
161774 95773.8 129962
102433 99949.8 94556.2
108774 93573.8 88773.8
175225 101887 109699
177774 100338 98773.8
98961 108926 113334
107126 99773.8 113774
98161.4 98815 63445.8
105774 86309.8 58773.8
177009 100803 102051
173198 90773.8 93773.8
164875 87996.2 109000
162794 81773.8 96773.8
96115.4 126575 134853
98341.8 130774 143774
165602 97640.6 126073
157774 89541.8 122774
101054 94063 61670.2
107506 88773.8 68773.8
171182 156928 184249
163930 152774 198774
108298 156169 175257
112774 152774 183890
105570 90360.6 66642.6
105122 93773.8 77773.8
177211 175123 153427
173430 179774 160774
104707 102277 112500
110258 94773.8 105774
145952 190247 178644
152774 185206 179774
100544 108453 116567
106774 107774 129138
172874 91500.6 94129.8
168774 84773.8 87949.8
102911 108195 121344
99773.8 116330 129774
174445 95035.4 97139.8
177810 94773.8 86773.8
167357 171254 187069
157774 177774 193970
99954.6 95868.6 62345
100774 93573.8 49773.8
108631 154493 175756
111774 141774 177926
163751 84636.2 102398
152774 79549.8 99773.8
106925 89249.8 68134.6
115138 81773.8 69773.8
171316 88944.6 91781.4
174774 87665.8 82773.8
104379 108035 124306
112774 100774 125950
97801 131040 142521
98773.8 140774 152030
164104 86964.2 108841
153774 82773.8 111290
105651 87208.2 59555.8
113998 77773.8 58773.8
162769 82252.6 97032.2
160774 79673.8 87773.8
91614.2 111731 62110.6
95557.8 103774 53773.8
112703 153301 183615
117638 150774 192774
98404.2 137075 148417
93773.8 145774 147062
173799 178798 159961
168774 181774 169134
112808 79901 59825
121598 74773.8 64773.8
111481 145945 178405
117538 139774 186774
169180 85199.8 88005.8
166774 79773.8 80961.8
112184 142587 178391
115602 134774 179774
109584 103533 125325
117090 103774 137774
111897 142018 178065
110774 135590 170774
98663 139664 150946
102774 141774 161290
176200 163857 171826
172090 172774 174774
112526 165477 180505
116530 164774 189774
174120 87326.2 83693.8
176774 82773.8 71973.8
117351 151862 191803
122254 151774 199774
111845 101422 124997
119586 93773.8 121774
166424 80110.2 81275
162774 74773.8 74029.8
117552 151100 192483
121774 141774 195978
114838 103701 134039
112006 109774 140774
115269 136949 180066
121774 130774 185322
96621 127915 137153
91545.8 140774 138774
167240 173018 186862
162774 180774 179954
115502 135426 179861
116774 128234 173774
102627 142107 160929
105774 144774 168866
116317 104264 137129
119774 107538 146774
102730 141874 161181
106774 132774 161882
163869 76374.6 76203.4
170774 72513.8 67773.8
122103 143205 195642
127774 136226 198774
116858 103921 137581
124774 96773.8 133958
118737 106556 143881
113774 113774 149986
119681 94703.4 122245
128774 88353.8 119774
118011 105868 141855
127774 101774 145962
112005 109717 140277
109574 114774 144774
124845 103002 144730
132390 96773.8 139774
127019 89567 119538
133774 84773.8 113322
126895 102142 145592
132774 104774 153886
124818 91107.8 120350
125774 86325.8 109774
95635 164936 152431
92773.8 155774 147958
113962 113845 149093
108774 122278 153774
131010 103984 151398
127774 110774 159366
131207 86595.4 115684
141774 85477.8 118774
133715 84960.6 113512
139774 81553.8 108774
128247 88717.8 119703
134774 89601.8 127774
[...]
CELL_DATA 1581
SCALARS radius float
LOOKUP_TABLE default
2.122e-314
100
100
1.15718
0.0757782
1.15655
0.848649
0.975047
0.273246
0.839099
0.0941805
0.269465
0.144441
0.972518
0.926645
0.494689
0.149387
0.837518
0.819769
0.32563
0.740968
0.729907
0.0435372
0.740918
0.4871
0.166456
0.751418
0.502165
0.207753
0.474162
0.0605276
0.727322
0.0489822
0.751348
0.176888
0.307208
0.153509
0.609881
0.194351
0.117588
0.613106
0.560692
0.184985
0.464585
0.428083
0.237225
0.723232
0.117534
0.499012
0.113863
0.744742
0.108741
0.49677
0.377217
0.124748
0.422865
0.485782
0.205682
0.0913884
0.301814
0.602983
0.140078
0.210971
0.262571
0.17805
0.475198
0.337194
0.3311
0.0639495
0.336425
0.210519
0.282443
0.161934
0.145727
0.145292
0.720202
0.483181
0.12235
0.112026
0.193948
0.457792
0.256441
0.0743617
0.369047
0.0645994
0.74458
0.707777
0.151669
0.118952
0.596865
0.710091
0.377239
0.105374
0.327177
0.260773
0.435197
0.0691899
0.259139
0.41465
0.223281
0.351565
0.124681
0.171173
0.275066
0.227332
0.196771
0.0792457
0.714231
0.632937
0.479058
0.10251
0.632039
0.483431
0.517086
0.589496
0.125721
0.157392
0.228066
0.192656
0.446124
0.0704709
0.482931
0.702945
0.120832
0.622983
0.200525
0.0960065
0.375155
0.319265
0.333382
0.259913
0.327857
0.246866
0.415218
0.198467
0.212417
0.204394
0.19807
0.356513
0.452975
0.269708
0.287781
0.629833
0.458284
0.248688
0.161841
0.583675
0.128911
0.0789488
0.478342
0.285125
0.209518
0.316707
0.430177
0.541049
0.343304
0.0713157
0.620096
0.297941
0.196416
0.1739
0.213894
0.202034
0.289631
0.0656009
0.315766
0.0618848
0.414759
0.0604254
0.29711
0.0813453
0.196432
0.110429
0.282256
0.383792
0.245618
0.194713
0.335994
0.0747981
0.185928
0.0765253
0.470939
0.176493
0.445726
0.536286
0.160647
0.275557
0.372836
0.147503
0.271307
0.380345
0.363749
0.448985
0.134526
0.527938
0.192119
0.184362
0.275117
0.130797
0.336002
0.121237
0.233294
0.369184
0.167538
0.0712829
0.189346
0.105942
0.334949
0.331313
0.209711
0.377276
0.141463
0.293512
0.197962
0.105318
0.270331
0.0616624
0.173948
0.3028
0.204917
0.342483
0.581708
0.234437
0.512056
0.44495
0.134231
0.0995151
0.444067
0.585763
0.156957
0.21201
0.202789
0.072489
0.232104
0.101201
0.277851
0.111378
0.265863
0.112806
0.430902
0.419392
0.192476
0.0527482
0.368825
0.433464
0.188026
0.368506
0.154091
0.263468
0.159196
0.0963961
0.361478
0.29825
0.174628
0.112831
0.287845
0.187016
0.230529
0.0916529
0.203705
0.0771271
0.579909
0.23409
0.184571
0.0744277
0.330308
0.253112
0.226026
0.0690832
0.418766
0.342722
0.214841
0.40964
0.224196
0.177431
0.504854
0.159287
0.164006
0.112328
0.292842
0.150152
0.130069
0.103022
0.177093
0.218258
0.199094
0.355352
0.287918
0.571895
0.187284
0.0823329
0.21428
0.347184
0.144605
0.233543
0.173708
0.333541
0.146581
0.0599229
0.571676
0.0640009
0.155671
0.139802
0.339457
0.079068
0.417825
0.0909498
0.327993
0.266308
0.183971
0.14368
0.500944
0.058958
0.213351
0.129725
0.255624
0.132853
0.355395
0.180502
0.565613
0.102364
0.365854
0.110196
0.351828
0.282666
0.180013
0.397509
0.216379
0.141118
0.168549
0.251811
0.289777
0.183425
0.260591
0.427756
0.350777
0.18799
0.210471
0.107804
0.303994
0.120774
0.160302
0.153733
0.205021
0.0726195
0.563495
0.086668
0.33939
0.557327
0.179788
0.341263
0.156137
0.200697
0.314246
0.342848
0.205428
0.0769087
0.426926
0.218622
0.229804
0.109009
0.200233
0.28207
0.255352
0.553226
0.155956
0.14154
0.383428
0.0818434
0.174187
0.104043
0.285236
0.102347
0.210873
0.0890944
0.208756
0.078148
0.330713
0.338207
0.204023
0.105473
0.281931
0.147675
0.271379
0.410293
0.206025
0.0880877
0.279177
0.166166
0.401
0.438118
0.440069
0.0682708
0.162232
0.323812
0.167892
0.087055
0.219732
0.154757
0.208252
0.112733
0.247808
0.172752
0.303566
0.0886093
0.433232
0.101516
0.274629
0.0819345
0.301563
0.4187
0.190608
0.366194
0.24866
0.389752
0.153344
0.098131
0.192551
0.0854527
0.364636
0.279151
0.230208
0.196575
0.403728
0.0670956
0.277853
0.17581
0.24814
0.135492
0.214846
0.0667795
0.193971
0.319386
0.174268
0.423427
0.149687
0.33582
0.30342
0.0938074
0.182712
0.176933
0.281871
0.365578
0.270858
0.101367
0.277431
0.409621
0.165912
0.0905094
0.227422
0.267951
0.237175
0.151643
0.261423
0.177301
0.351113
0.279353
0.278001
0.0844207
0.268096
0.161246
0.196351
0.0543601
0.278665
0.110356
0.361235
0.135499
0.266828
0.0762918
0.265873
0.220293
0.222053
0.168417
0.242272
0.329307
0.22524
0.207517
0.299163
0.136991
0.289264
1.15666
0.127476
1.15435
0.183637
1.1559
0.138116
0.111229
0.16888
0.0499759
0.107759
0.97423
0.132517
0.071492
0.164497
0.0934944
0.129985
0.122254
0.137927
0.973579
0.122817
0.249852
0.148967
0.0527301
0.127026
0.0507757
0.147405
0.231245
0.147845
0.97144
0.145122
0.0777133
0.139822
0.180306
0.186662
0.493495
0.0956202
0.0503328
0.178989
0.136707
0.147044
0.0916167
0.728029
0.83655
0.126735
0.138187
0.156935
0.0575197
0.150769
0.06051
0.163747
0.727462
0.0965681
0.50098
0.0963389
0.0922834
0.750884
0.0746312
0.144409
0.0718008
0.159009
0.724265
0.161779
0.0631585
0.147067
0.745514
0.208153
0.605492
0.169412
0.055522
0.103685
0.0580208
0.167112
0.114896
0.139547
0.0607323
0.182777
0.130885
0.493723
0.0789254
0.2043
0.451106
0.2039
0.722168
0.118595
0.110886
0.184068
0.0579266
0.182135
0.497774
0.0973253
0.0556273
0.12059
0.0711463
0.17911
0.0579011
0.175985
0.134319
0.130912
0.0812377
0.176581
0.179264
0.187927
0.483388
0.188247
0.0922039
0.197411
0.116631
0.161012
0.064062
0.118841
0.598435
0.170109
0.126721
0.150597
0.177364
0.214003
0.370051
0.12635
0.144155
0.133221
0.0620713
0.141413
0.182931
0.465984
0.743942
0.101978
0.157958
0.139174
0.374897
0.099465
0.12688
0.194408
0.33078
0.123523
0.0616711
0.113148
0.717466
0.161872
0.0604905
0.180699
0.0916604
0.222252
0.070635
0.165948
0.714556
0.164802
0.0691507
0.185084
0.0736017
0.112736
0.155847
0.35954
0.108316
0.706931
0.0933906
0.204205
0.175007
0.233571
0.102318
0.150441
0.100448
0.169697
0.0686582
0.157645
0.591396
0.168807
0.295592
0.209502
0.0654212
0.231847
0.0595191
0.154502
0.155829
0.167878
0.130303
0.142447
0.103413
0.160192
0.411334
0.119279
0.119867
0.216447
0.0650235
0.110486
0.0788649
0.142838
0.121115
0.267005
0.109206
0.129793
0.0768257
0.151312
0.702102
0.107656
0.102715
0.444302
0.121371
0.258369
0.62041
0.143968
0.079113
0.21992
0.704133
0.161063
0.0682704
0.195737
0.0934331
0.129433
0.0786528
0.162912
0.268548
0.146812
0.105468
0.211518
0.318722
0.102406
0.0664421
0.199609
0.253599
0.107688
0.111356
0.251282
0.148634
0.170736
0.130394
0.199359
0.471612
0.165768
0.125606
0.132801
0.300332
0.163798
0.0750703
0.119796
0.101149
0.190272
0.0811354
0.156873
0.0817793
0.199933
0.417457
0.18996
0.126252
0.122855
0.618857
0.11255
0.322208
0.121429
0.0802799
0.159238
0.0705678
0.193538
0.28157
0.125416
0.117042
0.158111
0.0696913
0.180981
0.103557
0.128031
0.0969514
0.163407
0.338446
0.119197
0.0695888
0.123871
0.131462
0.174413
0.137474
0.138571
0.243734
0.176422
0.272225
0.18225
0.214031
0.171145
0.0751343
0.195996
0.0608987
0.130231
0.0874557
0.149649
0.0762338
0.128483
0.357238
0.168641
0.129605
0.152828
0.138832
0.262788
0.126252
0.168406
0.101791
0.183656
0.0895124
0.149189
0.104744
0.156917
0.320895
0.165519
0.261436
0.123563
0.116282
0.143619
0.146636
0.185436
0.119794
0.330847
0.119972
0.164703
0.12446
0.177593
0.103345
0.193416
0.0949981
0.188728
0.122735
0.148299
0.100495
0.171436
0.0692167
0.127792
0.113239
0.14924
0.136429
0.216572
0.116629
0.179627
0.317002
0.163352
0.108409
0.186471
0.105709
0.153472
0.0625947
0.137254
0.152648
0.210074
0.0966641
0.156041
0.0617669
0.172013
0.127419
0.171701
0.267379
0.132666
0.145727
0.160583
0.0507183
0.127446
0.103078
0.257391
0.108742
0.145386
0.261975
0.180388
0.143097
0.178365
0.0911094
0.142644
0.103644
0.175121
0.0916101
0.169915
0.580364
0.110843
0.172247
0.125586
0.179323
0.224308
0.116373
0.168692
0.12547
0.166236
0.0763964
0.136086
0.114424
0.162584
0.0850704
0.249868
0.578513
0.11201
0.305163
0.205576
0.104031
0.158259
0.137383
0.154595
0.126326
0.238605
0.432492
0.176658
0.0882934
0.171884
0.110864
0.160707
0.196596
0.128321
0.110433
0.14808
0.0798295
0.201482
0.0520627
0.14232
0.0757738
0.168762
0.0889526
0.176169
0.495194
0.162352
0.0704222
0.140949
0.108358
0.170475
0.127409
0.19312
0.131014
0.210282
0.090671
0.162822
0.308447
0.139008
0.134198
0.223521
0.132527
0.198347
0.113445
0.1887
0.563897
0.11799
0.130864
0.178115
0.191903
0.172931
0.100015
0.148562
0.230451
0.17606
0.0805031
0.132265
0.170334
0.274163
0.166505
0.159438
0.121179
0.200494
0.134764
0.242474
0.151282
0.198518
0.124937
0.156883
0.294529
0.176329
0.361338
0.209479
0.136236
0.227196
0.18272
0.182069
0.332161
0.186756
0.434464
0.12778
0.224424
0.22311
0.107817
0.198692
0.286768
0.16522
0.149015
0.258625
0.317585
0.148179
0.321173
0.144873
0.191183
0.217652
0.145943
0.195749
0.0805102
0.161479
0.431474
0.169816
0.10493
0.174988
0.0707252
0.150949
0.160165
0.171946
0.149372
0.199755
0.094145
0.191009
0.20362
0.189223
0.134829
0.205315
0.177725
0.187449
0.183173
0.240094
0.115667
0.193076
0.132604
0.183322
0.429573
0.126894
0.112381
0.164489
0.211003
0.229302
0.109107
0.153236
0.0938454
0.188278
0.142948
0.231795
0.087077
0.151689
0.4185
0.137848
0.160911
0.146307
0.231486
0.246729
0.0671271
0.145045
0.171718
0.215129
0.131778
0.198907
0.10031
0.1624
0.132166
0.173927
0.107222
0.179008
0.183614
0.192661
0.159434
0.247804
0.0764904
0.166744
0.199202
0.215167
0.144903
0.203154
0.188833
0.229329
0.126158
0.215792
0.11944
0.209879
0.130407
0.235128
0.177394
0.195017
0.118735
0.218187
0.230625
0.228543
0.135303
0.215279
0.0827417
0.127409
0.0871333
0.112134
0.103056
0.0991168
0.0943733
0.114129
0.0391942
0.0918611
0.0631289
0.107289
0.266385
0.0872071
0.0602649
0.13398
0.100554
0.101086
0.0748381
0.112752
0.0756439
0.142159
0.0969463
0.125183
0.0979011
0.121536
0.0939627
0.133924
0.0855965
0.729514
0.0725728
0.131164
0.0772927
0.137411
0.128058
0.120852
0.728512
0.116914
0.105904
0.0946459
0.150852
0.128096
0.0827246
0.13774
0.0892644
0.123492
0.726946
0.0841815
0.304581
0.0903476
0.104172
0.116642
0.117081
0.116371
0.0860343
0.133414
0.0843742
0.114502
0.057879
0.112714
0.0725838
0.103034
0.0886664
0.14923
0.0494234
0.113606
0.196608
0.0975164
0.124413
0.0937073
0.0959018
0.110797
0.426453
0.096281
0.054662
0.127655
0.492723
0.0900389
0.231444
0.0983869
0.421034
0.0992665
0.121777
0.157943
0.118081
0.16208
0.0407549
0.1253
0.0708658
0.109477
0.134088
0.146878
0.0675929
0.103137
0.18074
0.121397
0.0654641
0.134168
0.317021
0.14534
0.0865212
0.169366
0.104224
0.146212
0.326893
0.110955
0.0439905
0.125092
0.133248
0.171261
0.0740455
0.144377
0.108288
0.148884
0.0607793
0.141707
0.464403
0.100873
0.250726
0.103304
0.0761898
0.116344
0.0847762
0.139092
0.0933452
0.126297
0.106259
0.137251
0.139319
0.166832
0.0713263
0.107296
0.0908993
0.157303
0.0748226
0.138831
0.133706
0.135657
0.172162
0.10736
0.173433
0.127626
0.356716
0.102805
0.122773
0.191953
0.134156
0.189274
0.595945
0.0993625
0.194772
0.153112
0.0714629
0.13618
0.0724443
0.111441
0.0712399
0.163488
0.207416
0.152395
0.713678
0.0945517
0.071862
0.130342
0.0961632
0.140926
0.11375
0.174449
0.129908
0.174427
0.630999
0.107564
0.0830742
0.117281
0.100675
0.146711
0.0779213
0.155581
0.105089
0.125934
0.442477
0.102482
0.102217
0.139211
0.137186
0.164985
0.152576
0.15962
0.130682
0.193379
0.481126
0.107968
0.202149
0.1098
0.193244
0.205278
0.113987
0.151772
0.189879
0.106774
0.324041
0.120024
0.454766
0.130059
0.073563
0.116693
0.331563
0.113988
0.0936439
0.164921
0.177114
0.134554
0.174072
0.116473
0.0913867
0.186322
0.200976
0.118595
0.32944
0.10911
0.196616
0.116878
0.36935
0.112933
0.179117
0.126496
0.113477
0.142637
0.0791639
0.11298
0.074378
0.121385
0.130806
0.161729
0.107248
0.17816
0.117435
0.154474
0.138367
0.141647
0.163601
0.175678
0.133024
0.159706
0.087909
0.168011
0.159008
0.107521
0.136869
0.116518
0.108484
0.166924
0.0981418
0.146251
0.468983
0.109034
0.442102
0.104988
1.13077
0.0819482
1.13063
0.146725
1.12981
0.156742
1.1277
0.129731
0.70125
0.142543
0.699282
1.12871
0.161264
0.141485
0.697346
0.702727
1.02823
0.102324
0.69661
0.121831
1.02765
1.02203
0.260696
0.185019
0.692232
0.0761754
1.02189
0.12909
0.249687
0.12255
0.69095
0.0911699
1.02165
0.504565
0.978858
0.683459
0.219753
0.160099
0.499134
0.109414
0.978403
0.13727
0.681608
0.136814
0.679766
0.0899905
0.498157
0.120045
0.9778
0.129205
0.678207
0.172775
0.975998
0.25554
0.474651
0.103117
0.249815
0.122444
0.676874
0.167405
0.221551
0.39969
0.350569
0.0966077
0.975683
0.289618
0.967101
0.116003
0.396406
0.659589
0.285029
0.1917
0.330314
0.26632
0.351427
0.130555
0.32337
0.182497
0.211883
0.146302
0.195575
0.0968106
0.285966
0.188646
0.230054
0.201107
0.964194
0.0932751
0.194183
0.181883
0.261006
0.134386
0.657724
0.61579
0.871922
0.287637
0.215562
0.6009
0.254745
0.111766
0.599609
0.137455
0.597191
0.846074
0.385347
0.116869
0.347064
0.233332
0.30759
0.197751
0.65171
0.190612
0.254376
0.0989459
0.845623
0.148159
0.377904
0.158932
0.232186
0.0968276
0.281255
0.106405
0.650763
0.184654
0.645769
0.112747
0.595849
0.177852
0.286335
0.156443
0.232887
0.103044
0.845113
0.171273
0.641728
0.190933
0.58924
0.153139
0.369328
0.218032
0.307599
0.340475
0.221781
0.107061
0.844539
0.117615
0.587674
0.185404
0.251328
0.451293
0.556518
0.19645
0.278162
0.109494
0.843925
0.19099
0.840652
0.103815
0.840124
0.366558
0.535671
0.156362
0.356818
0.175633
0.837558
0.148796
0.531816
0.0946053
0.449903
0.233369
0.516394
0.783944
0.472909
0.239938
0.425897
0.181691
0.340368
0.189328
0.413042
0.279183
0.48762
0.204482
0.395611
0.140491
0.266782
0.14706
0.553074
0.208216
0.474622
0.143029
0.782353
0.206869
0.777502
0.215183
0.541996
0.125208
0.469965
0.202632
0.457057
0.211001
0.310853
0.119799
0.776553
0.179497
0.773343
0.213365
0.45979
0.242895
0.435983
0.298809
0.327842
0.192427
0.769351
0.106386
0.540626
0.103796
0.455266
0.227845
0.382682
0.407906
0.298103
0.303713
0.379966
0.572504
0.644518
0.27028
0.517099
0.143577
0.569478
0.213077
0.559356
0.138351
0.287819
0.188478
0.6391
0.565638
0.431004
0.159425
0.561385
0.169653
0.510939
0.163957
0.372375
0.288248
0.302516
0.213647
0.548767
0.165135
0.556581
0.143357
0.425651
0.226185
0.495715
0.212903
0.537871
0.246657
0.396028
0.179545
0.550282
0.246036
0.520132
0.389021
0.475864
0.320041
0.476124
0.22393
0.37056
0.195258
0.37188
0.24478
0.474963
0.179818
0.467416
0.351667
0.388484
0.352659
0.39851
0.311735
0.426284
