# vtk DataFile Version 3.0
Tree
ASCII
DATASET POLYDATA
POINTS 1582 float
162774 225274 273.8
162774 225274 10273.8
141774 225774 23773.8
139774 213262 31773.8
140214 218155 31273.8
136774 209782 52773.8
138356 213633 42883.8
118774 204774 47949.8
137249 210937 49807
151326 200774 65773.8
127054 207463 48483.4
117774 196774 67321.8
144850 205449 58429
135774 198022 75773.8
149988 201290 65443
157958 192774 81773.8
120558 199981 61670.2
102774 189998 60773.8
155567 195329 76874.6
169258 183774 75773.8
112377 195389 61257.8
104774 186102 78773.8
119837 198004 66290.6
120774 192046 83773.8
162960 189089 76280.2
171974 182774 93773.8
138785 199744 73750.6
139774 195998 94773.8
104595 190381 61923.4
91773.8 179258 67773.8
167369 185368 75925.8
173218 163774 62773.8
168549 185173 87126.2
177402 173774 86773.8
171619 182354 92567
178002 173774 101774
174389 176644 85637
178018 165774 77773.8
120381 193928 82273.4
119774 194002 106774
94115.4 180677 65634.2
83773.8 167942 63773.8
92476.2 179683 67131.8
86773.8 173978 85773.8
139457 197197 93086.6
139774 195998 112774
177285 166609 79197
179782 150774 72773.8
171033 165924 64182.6
172098 146774 52773.8
88940.6 176146 78689.8
96773.8 182102 90773.8
117983 193412 93858.6
104774 190054 103774
139679 196357 94267.4
157078 193774 104774
179058 151921 73989
180050 136774 69773.8
176602 174397 99111.4
183962 156774 105774
181165 163471 103242
183262 161774 119774
176416 169619 81129
182530 155774 89773.8
85974.2 169257 65116.2
79545.8 152774 69773.8
82503 160356 67631.4
77637.8 158774 80773.8
86552.2 174571 85114.6
79773.8 172798 98773.8
179503 139463 69371.8
178058 126774 58773.8
119010 194402 106087
117774 197998 126774
106240 190221 101191
89773.8 184774 104446
81807.4 173330 94675.8
75585.8 161774 97773.8
181085 157132 87299.8
183998 138774 88773.8
140388 196321 110118
144774 195998 131774
155897 192775 104212
167774 187994 111774
179886 137581 69653.4
183998 129774 80773.8
144288 195858 121902
154774 194006 127774
116111 197136 124329
110774 198002 135774
181448 134614 73879
183874 123774 72773.8
178493 128595 59085.4
177962 118774 47773.8
182317 158205 106100
183998 138774 118774
178334 125648 55691.8
177774 129774 43245.8
144628 195956 128812
131774 198002 136774
80433 155049 69131
83773.8 135654 61773.8
183409 145995 116298
183998 141774 132774
144730 195985 130885
145774 195970 145774
78535.4 164223 95741.8
77545.8 143774 92773.8
183727 143715 125195
183998 157774 138774
183895 142512 129894
181998 131774 132774
80383.8 172957 97544.6
81473.8 163774 118774
165827 187882 110572
176774 177974 117774
78238.6 158088 94851.4
79545.8 145774 109774
78061 148224 92101
79493.8 139774 82773.8
177942 128536 46979.4
187774 123774 35853.8
94713.8 186408 103469
87773.8 184774 122878
111143 197176 133804
103122 193774 143774
106170 195067 139985
109774 196414 151774
84382.6 137129 63067.4
87529.8 125774 59773.8
182567 134995 131910
181998 125774 121774
154026 193562 126825
167082 189774 132774
162121 191213 130513
169978 186774 123774
183967 141995 131910
179814 136774 150774
145461 195975 141307
131958 198774 151774
89367.4 183675 118619
85773.8 173774 129890
182169 132740 132515
177774 126298 142774
88251.8 184444 121600
95773.8 191286 131774
183624 152433 135981
182002 154774 152774
108693 196010 148237
104774 186774 157946
178405 128104 141684
173810 126774 154774
105214 190104 102999
100654 193774 118774
78720.2 144337 87810.6
81493.8 130774 90773.8
159692 191918 129407
161982 190774 145774
86585.4 129180 60761.8
87549.8 119774 70773.8
136009 197934 148634
137082 197774 166774
109449 196293 150713
115774 194774 163274
182049 132064 132696
175774 114774 132810
159848 191714 138736
153774 193974 145774
87246.6 126796 60070.2
91493.8 119774 50773.8
182503 163212 116710
181886 168774 129774
86951.8 125606 64566.6
91505.8 112774 61773.8
178259 120685 131505
177834 113774 123774
80351 145929 107313
83541.8 135774 113774
167621 188106 125796
175774 181258 128774
81957 132034 89265.4
86317.8 119774 88773.8
88236.6 178311 126987
92325.8 175774 143774
177963 126840 142447
170774 117774 147334
83956.2 136096 62161.8
87549.8 136774 48773.8
82353.4 164298 117599
85549.8 157774 132774
178142 115360 124461
179218 111774 113774
81563.4 142070 109768
85021.8 143774 125774
176519 116547 132418
170774 112774 139962
89415.8 175871 133335
88773.8 165774 139954
175997 115306 132692
172774 107658 128774
88071.8 120385 69021.4
92773.8 109562 73773.8
105552 187473 156000
102774 173958 162774
173398 127306 153053
165774 126774 167330
81632.6 131152 90321.4
84773.8 125594 101774
92104.6 175240 142355
96357.8 171774 153774
180012 139230 148377
175774 139578 163774
96229.8 171486 152713
99545.8 167774 159774
181524 154958 150817
177978 158774 169774
113700 193905 160655
116774 184774 175974
137772 196985 164659
140774 194774 179954
85873.4 122104 89746.6
91553.8 112774 94773.8
113339 187420 167445
109774 178570 171774
178723 113423 118690
173030 99773.8 114774
88941 117066 92461.4
92321.8 109774 86773.8
83563.4 137501 113610
89773.8 128774 124906
132090 198652 151235
122774 200002 155774
172170 120729 147085
162774 116222 157774
91243.8 113994 63507.4
95773.8 102466 64773.8
172465 183995 129033
177182 179774 139774
166253 125525 163726
158774 121706 170774
106745 190717 153050
98773.8 182774 149962
146165 195525 144959
149890 192774 158774
165700 126841 166962
163774 131090 175774
91427 113140 62293.8
94773.8 105774 54385.8
183587 157165 138636
181998 166774 144774
178487 156623 165232
174774 150774 173890
84802.2 126000 99801.8
91033.8 117774 109774
172893 101105 115069
168774 93517.8 112774
173741 109952 129949
161774 100774 137286
177639 158409 169081
173998 162774 178774
99343.8 168139 159190
103562 163774 167774
174642 104800 116156
175774 98773.8 104814
91370.2 113268 93964.6
96773.8 105574 94773.8
112007 181704 171246
114774 173774 181298
168599 119017 151147
161774 109114 149774
90295 118670 107081
97773.8 108314 109774
128550 199165 152960
118774 200002 145774
162864 116934 156856
154774 114774 163962
95949.8 103359 64749.8
100286 95773.8 65773.8
181932 165099 145050
179946 171774 152774
174936 151093 172313
168774 141774 179326
84727 142334 122292
89585.8 136774 131774
148773 193599 154629
160794 189774 158774
96083.8 106839 93855.4
102266 99773.8 89773.8
89811.4 130727 124334
97005.8 125774 135774
170010 95793.8 113463
169774 90001.8 102774
90812.2 118043 108966
89773.8 122774 116814
113944 176153 178282
110774 163774 177990
163454 129951 174795
157774 131146 185774
89507 168220 139289
92773.8 163774 147970
169193 106465 132737
164426 95773.8 125774
174823 150870 173417
168774 152774 188026
173712 162762 178257
167774 168966 190774
98985 98049.4 65466.6
101590 91773.8 56773.8
154302 191839 156536
155774 187774 169938
96314.6 110895 110077
101774 106774 117134
110887 164935 176903
107554 153774 173774
162265 190363 143025
171774 184414 151774
169145 94200.6 112981
159774 87773.8 117966
100260 96136.2 65452.6
105582 88773.8 64773.8
175412 99582.2 105643
175774 94773.8 94813.8
102110 100298 90519.8
108774 93569.8 87773.8
110808 164122 177664
115762 164774 188774
169920 93593 109401
161774 85033.8 107774
99262.6 108669 113888
106774 99573.8 110774
179435 171318 151702
175854 177774 157774
170589 152203 183643
164774 143590 188774
95250.2 127811 133805
98341.8 130774 143774
169841 90519.4 103163
169974 86773.8 92773.8
98378.2 109337 112745
99773.8 112366 123774
110784 163878 177892
112362 153774 183774
164081 87433 107083
157890 80773.8 98773.8
153903 188795 167895
150774 186774 177958
168872 168057 186113
160774 177986 188774
108765 155802 175039
109774 146734 176774
106775 95588.2 88597.8
108774 90773.8 77949.8
175729 176828 156951
171314 181774 161774
104521 102303 111708
105526 97773.8 101774
176039 95647.8 95161.8
177030 93773.8 86773.8
101885 106889 116668
110282 101774 123774
105359 89641.8 65097
114258 80773.8 65773.8
168988 87384.6 96130.2
163262 81773.8 90773.8
96479 126385 135183
99773.8 117774 131990
169839 87036.6 93097
172042 86773.8 84773.8
105747 104536 119937
107506 108774 130774
175766 177112 157198
175782 174774 166774
161840 175415 188791
152774 178774 194026
97414.2 129885 140783
93761.8 140774 144774
162015 86133 107859
153774 82773.8 111290
95441.8 135765 142938
99773.8 139774 155062
107563 106731 127401
112310 104774 133774
110139 147928 176725
114326 137774 179774
113793 81502.2 65331.4
120226 75773.8 64773.8
112441 158259 182572
117774 154774 193258
111119 83409 64101.8
115774 74773.8 57133.8
172330 180043 161346
167538 181774 170774
171381 86852.6 87270.6
166962 79773.8 80773.8
97781 137930 149485
95773.8 150774 153078
175055 174682 165949
173206 171774 174774
110506 105517 131352
118774 98773.8 129978
112065 143257 178128
117774 141774 189926
171843 86797.4 85523
177774 86225.8 74773.8
113105 140735 178885
112774 132774 171958
116293 100797 130390
116774 95609.8 121774
117143 153929 191383
121614 147774 198774
96381.8 143196 149795
91657.8 150774 144774
175046 86488.6 79718.2
172774 79597.8 73773.8
99747 138561 153743
105702 136774 162774
112151 105213 133489
118774 104774 141946
117588 140849 187508
123634 136774 194774
166643 80359 81180.6
160774 73773.8 74801.8
115931 141571 184694
121774 131094 185774
94400.2 138871 144076
89601.8 144774 137774
168794 180747 169488
167266 177774 179774
120172 133318 184642
121602 126774 179774
118151 99070.2 129633
124774 92365.8 125774
168335 179855 172574
159774 182774 177326
107917 154382 174153
104774 146394 167774
172941 79819.4 73996.2
170774 72513.8 67773.8
122082 138760 193351
127666 140774 202774
115727 104976 138056
113774 113002 147774
121926 94688.6 126033
124774 88365.8 115774
118587 98862.6 129874
125774 98773.8 137970
118722 104828 141711
124278 104774 147774
122611 104790 145955
130774 100526 145774
123236 91780.2 121314
132774 87545.8 120774
125156 89331 117596
132226 84773.8 111774
113494 110359 143191
105774 118774 144886
113396 112929 147010
111774 119090 153774
123778 104779 147228
130774 108126 157774
[...]
CELL_DATA 1581
SCALARS radius float
LOOKUP_TABLE default
2.122e-314
100
100
1.16013
0.189063
1.15826
0.906939
0.93101
0.126387
0.90612
0.929087
0.170881
0.805984
0.598817
0.804107
0.142179
0.632061
0.819063
0.803324
0.11492
0.809263
0.251104
0.071142
0.631761
0.339466
0.779818
0.169871
0.589516
0.133571
0.808048
0.0739405
0.338293
0.733265
0.427716
0.0632031
0.733109
0.422378
0.142494
0.0718477
0.631024
0.743187
0.48728
0.0587029
0.743065
0.347719
0.542354
0.0731954
0.374372
0.242909
0.230814
0.737532
0.192392
0.547559
0.439957
0.0533485
0.3473
0.0789855
0.358494
0.730908
0.142378
0.724582
0.215805
0.375302
0.282276
0.0783717
0.483035
0.464912
0.221447
0.0584593
0.733336
0.213312
0.328044
0.125185
0.541067
0.419356
0.22044
0.712944
0.317455
0.166181
0.239259
0.145693
0.536915
0.0762829
0.29694
0.072213
0.210517
0.455261
0.372167
0.11842
0.53377
0.140849
0.186963
0.0967012
0.319293
0.0751901
0.724312
0.192362
0.294082
0.435464
0.227548
0.079326
0.464141
0.105533
0.719016
0.0649726
0.434981
0.0891198
0.711868
0.613075
0.519243
0.598868
0.250138
0.0671344
0.310114
0.0929639
0.275949
0.639886
0.462201
0.638062
0.130742
0.137858
0.233608
0.0973927
0.417598
0.0783544
0.531489
0.0987142
0.530351
0.139977
0.451251
0.587591
0.228348
0.365551
0.115977
0.112579
0.31399
0.0645816
0.248695
0.380558
0.300695
0.225724
0.386831
0.389349
0.523968
0.0779421
0.222583
0.370077
0.446992
0.511284
0.249426
0.269337
0.340518
0.0611448
0.21886
0.636093
0.133842
0.318742
0.2544
0.243002
0.418943
0.306125
0.29786
0.069844
0.51085
0.0498741
0.523817
0.224221
0.173159
0.0740186
0.240691
0.168179
0.174282
0.222833
0.393195
0.486592
0.293472
0.452822
0.118246
0.286693
0.181214
0.601387
0.33003
0.35303
0.19452
0.0643512
0.268107
0.0623071
0.135735
0.0844292
0.217968
0.082556
0.485799
0.437946
0.206874
0.274054
0.167417
0.314386
0.234678
0.0643232
0.272868
0.0919183
0.217493
0.158585
0.14132
0.0891006
0.334358
0.0585339
0.601202
0.0907017
0.31185
0.108634
0.222278
0.0945812
0.30055
0.132498
0.434009
0.502887
0.167167
0.166443
0.22458
0.0891758
0.327845
0.127087
0.500167
0.481064
0.14917
0.305528
0.188685
0.43234
0.147121
0.299444
0.122485
0.104625
0.262687
0.187968
0.37832
0.164473
0.267377
0.15605
0.316781
0.189552
0.205726
0.071801
0.299324
0.0702065
0.315627
0.0702027
0.184645
0.0640965
0.369435
0.329043
0.354762
0.0811105
0.60071
0.0840575
0.457782
0.225794
0.206498
0.0759313
0.32769
0.0945849
0.297395
0.458725
0.245524
0.298087
0.126689
0.495576
0.150575
0.154214
0.243621
0.163662
0.595349
0.278658
0.173384
0.0994548
0.237966
0.0797104
0.377137
0.0832238
0.368022
0.311807
0.242916
0.114628
0.184518
0.112026
0.294
0.0940749
0.29493
0.167226
0.423834
0.225642
0.438727
0.129535
0.130259
0.107828
0.493868
0.19191
0.257955
0.110703
0.226161
0.153081
0.199367
0.0695664
0.310649
0.0756773
0.319994
0.345691
0.231025
0.134316
0.284341
0.592805
0.13914
0.316193
0.446215
0.169875
0.164503
0.0782745
0.222457
0.0726093
0.344619
0.092334
0.241091
0.277944
0.161114
0.279015
0.214661
0.390546
0.291925
0.20261
0.580552
0.0823181
0.366644
0.175308
0.26226
0.231101
0.395132
0.0770469
0.389544
0.588664
0.163055
0.0502999
0.278469
0.184932
0.264732
0.220412
0.183576
0.293148
0.196389
0.430977
0.206413
0.132271
0.267577
0.227743
0.328463
0.154007
0.167084
0.109739
0.233261
0.0621915
0.580314
0.166596
0.33112
0.369355
0.205848
0.0817165
0.227644
0.0758164
0.368288
0.120877
0.578561
0.0809753
0.224278
0.204907
0.255036
0.381295
0.158298
0.102017
0.173944
0.357958
0.212298
0.109458
0.577252
0.424472
0.152839
0.110268
0.285493
0.13015
0.26865
0.290874
0.193832
0.193819
0.304222
0.308503
0.274092
0.286237
0.281955
0.105312
0.180308
0.452021
0.464148
0.259711
0.389218
0.0947318
0.305496
0.222672
0.186402
0.1465
0.446832
0.129043
0.23862
0.17509
0.262482
0.171217
0.2864
0.231244
0.215799
0.0690412
0.463639
0.132174
0.247996
0.110354
0.267995
0.259927
0.345943
0.113025
0.201032
0.119918
0.287727
0.320017
0.205103
0.434698
0.191954
0.228594
0.228144
0.083778
0.201706
0.110303
0.252981
0.159663
0.223618
0.380417
0.349465
0.12038
0.431598
0.0587757
0.190099
0.373452
0.143724
0.355945
0.191174
0.371226
0.296743
0.113145
0.367688
0.162636
0.337306
0.0889683
0.33523
0.0852232
0.354309
0.0943714
0.232986
0.274726
0.256815
0.319271
0.20489
0.318231
0.237499
0.0898859
0.315822
0.0957176
0.258169
0.238037
0.232959
0.0965867
0.270687
0.164754
0.199108
0.240358
0.260194
0.119356
0.230117
0.147068
0.211506
0.104346
0.300033
0.158357
0.238294
0.134513
0.311891
0.259637
0.21184
0.0614576
0.186873
0.0661699
0.174686
1.15803
0.0972882
0.122919
0.151444
0.057514
0.122286
0.905458
0.117693
0.903811
0.159298
0.805586
0.0918751
0.0621193
0.156085
0.154433
0.109324
0.0893908
0.143725
0.0465678
0.140494
0.139792
0.129465
0.817243
0.154051
0.594181
0.170411
0.800697
0.171793
0.239645
0.12745
0.0474728
0.137943
0.0538203
0.168602
0.106753
0.156778
0.778878
0.0952745
0.0498796
0.131211
0.329076
0.12748
0.138388
0.215153
0.232757
0.104855
0.586335
0.148868
0.335334
0.10024
0.0820172
0.128029
0.202774
0.117497
0.0745844
0.122629
0.0770037
0.163068
0.317433
0.153973
0.298621
0.174966
0.091817
0.742597
0.116089
0.189202
0.629396
0.124708
0.0954826
0.541366
0.0700421
0.240952
0.102248
0.344321
0.226778
0.132504
0.0903463
0.166536
0.74187
0.106333
0.184493
0.165608
0.102227
0.096316
0.543292
0.156166
0.0551449
0.139566
0.0749889
0.138745
0.736057
0.133922
0.133228
0.157606
0.322142
0.194791
0.0788581
0.129673
0.73346
0.161419
0.109204
0.170897
0.0950557
0.221069
0.122609
0.125261
0.0816382
0.164447
0.366582
0.147482
0.19253
0.527466
0.121395
0.138524
0.0843302
0.15335
0.102992
0.14803
0.535705
0.0933532
0.72268
0.136863
0.174262
0.122646
0.712334
0.0976247
0.298609
0.189494
0.11594
0.155131
0.263453
0.161421
0.104506
0.137366
0.05949
0.16566
0.279422
0.146121
0.48109
0.110684
0.0594795
0.192925
0.0855289
0.143913
0.0621678
0.163229
0.202097
0.137599
0.070235
0.136563
0.0586872
0.113406
0.138857
0.222526
0.0950682
0.131244
0.175527
0.141719
0.719773
0.165537
0.142556
0.153803
0.260173
0.230287
0.0908218
0.15601
0.152172
0.15318
0.243851
0.145983
0.0994334
0.183685
0.410919
0.150934
0.110742
0.460143
0.127899
0.266468
0.0964415
0.136466
0.0841706
0.218437
0.178692
0.142635
0.455696
0.140896
0.132046
0.255189
0.455494
0.161807
0.193664
0.176358
0.0567955
0.242819
0.107635
0.209353
0.0756489
0.121687
0.254334
0.173094
0.0762353
0.159962
0.160025
0.232206
0.0710954
0.157096
0.230611
0.111421
0.375897
0.168348
0.238974
0.120139
0.118493
0.198641
0.632844
0.157725
0.532056
0.113445
0.438087
0.173606
0.123966
0.290523
0.229345
0.131106
0.145024
0.197469
0.210699
0.124264
0.415735
0.118795
0.118636
0.159216
0.12035
0.129675
0.270467
0.167934
0.13346
0.170805
0.51985
0.147978
0.123935
0.170657
0.155154
0.193519
0.50897
0.113598
0.0682712
0.170012
0.114701
0.143259
0.194031
0.187944
0.110592
0.220431
0.137826
0.137044
0.132802
0.170572
0.125825
0.161413
0.0885253
0.181155
0.118861
0.210657
0.0897458
0.157247
0.0617621
0.1434
0.125347
0.139283
0.0673978
0.126409
0.37171
0.120624
0.251658
0.156694
0.112308
0.165444
0.303641
0.132619
0.328931
0.121436
0.121109
0.196366
0.0590166
0.135657
0.113337
0.179581
0.109681
0.208287
0.113262
0.156604
0.081427
0.163543
0.0797927
0.164541
0.103503
0.212546
0.431379
0.113888
0.0802524
0.164523
0.174699
0.175183
0.599443
0.111005
0.114863
0.200718
0.0844236
0.139549
0.127456
0.166875
0.103574
0.160067
0.11036
0.149604
0.0591706
0.122231
0.149152
0.20206
0.0610337
0.204705
0.109472
0.207825
0.147434
0.23256
0.172287
0.164249
0.146094
0.180268
0.250838
0.149365
0.289379
0.19319
0.151186
0.201579
0.130287
0.15984
0.15618
0.195894
0.123198
0.184898
0.0681048
0.163372
0.0908132
0.198565
0.226674
0.139029
0.0858655
0.127253
0.17026
0.230658
0.0784629
0.14311
0.212125
0.157814
0.0994575
0.154153
0.119035
0.221663
0.0866215
0.254657
0.254573
0.21403
0.131829
0.176922
0.321399
0.125737
0.168635
0.182672
0.195631
0.20822
0.129066
0.212877
0.109713
0.180592
0.159868
0.231536
0.286132
0.187126
0.0897505
0.208634
0.103263
0.199385
0.0688221
0.156814
0.0832842
0.157056
0.107605
0.174423
0.0551753
0.126872
0.256595
0.18266
0.142199
0.208546
0.14305
0.190966
0.143981
0.2002
0.103681
0.148063
0.36152
0.126778
0.0822924
0.259531
0.390181
0.131811
0.162831
0.153362
0.13488
0.123449
0.111025
0.188101
0.113551
0.182819
0.0713374
0.162116
0.152936
0.154723
0.190912
0.219134
0.419899
0.128086
0.13064
0.202413
0.101836
0.172472
0.181328
0.236308
0.187242
0.182988
0.0821263
0.160189
0.0687539
0.153851
0.150479
0.247418
0.134944
0.214528
0.183847
0.207482
0.317125
0.164006
0.12117
0.245572
0.250589
0.154016
0.147285
0.215449
0.0632337
0.151119
0.0896418
0.201747
0.150639
0.186192
0.116527
0.236495
0.29451
0.137711
0.0887237
0.210679
0.119874
0.191292
0.0737669
0.146882
0.131246
0.194747
0.128306
0.169293
0.128332
0.17405
0.191566
0.161998
0.206787
0.243441
0.460623
0.124556
0.0935376
0.174088
0.154139
0.178516
0.124442
0.23208
0.259786
0.1813
0.187939
0.190824
0.134792
0.204814
0.198297
0.225392
0.103298
0.175164
0.188035
0.17354
0.124182
0.188643
0.425962
0.145947
0.164804
0.153944
0.0453616
0.142202
0.156095
0.147109
0.154477
0.137436
0.148251
0.170405
0.103786
0.199317
0.34523
0.149364
0.151674
0.150082
0.357325
0.159867
0.126116
0.184141
0.173481
0.227129
0.304183
0.163858
0.113325
0.223682
0.111877
0.217694
0.120745
0.189832
0.154071
0.213552
0.176624
0.242858
0.182204
0.226152
0.171212
0.210331
0.191778
0.248743
0.282076
0.199127
1.15994
0.092452
0.177795
0.0967485
0.0702772
0.114728
0.0955842
0.0911362
0.115389
0.124655
0.0619865
0.116728
0.0657268
0.10075
0.103279
0.139265
0.111759
0.116299
0.0933502
0.12514
0.072201
0.13247
0.0764353
0.119894
0.0884823
0.108207
0.111149
0.13167
0.0526635
0.102298
0.0572286
0.105843
0.0792423
0.100666
0.631334
0.0798876
0.105471
0.138907
0.0828328
0.119684
0.0849838
0.113352
0.0634578
0.133312
0.0632628
0.134387
0.100013
0.102323
0.779353
0.0946021
0.80732
0.112549
0.0679578
0.103597
0.0536012
0.113654
0.0834888
0.139543
0.0992957
0.0986631
0.108115
0.133637
0.732704
0.0867054
0.0969661
0.11781
0.0866847
0.486364
0.076291
0.124774
0.0878875
0.126793
0.221189
0.113832
0.107089
0.176996
0.483722
0.123085
0.119475
0.156588
0.109845
0.148781
0.0682427
0.126173
0.184628
0.0938972
0.0724711
0.114065
0.104246
0.11661
0.540467
0.0924094
0.0356794
0.0946555
0.0796351
0.159227
0.35571
0.102116
0.359767
0.139187
0.43875
0.0887672
0.535882
0.0962537
0.0782078
0.124365
0.0715337
0.13258
0.536649
0.156716
0.112968
0.142724
0.0580666
0.120955
0.0795843
0.217576
0.10253
0.140459
0.311159
0.123115
0.322223
0.122675
0.0665913
0.115719
0.0722752
0.141453
0.526452
0.0945518
0.0550749
0.137577
0.112889
0.175068
0.0812059
0.109989
0.092053
0.166137
0.0947249
0.1206
0.124246
0.131773
0.292153
0.107607
0.0829399
0.125847
0.0947685
0.155147
0.369402
0.104479
0.126729
0.202181
0.0753153
0.129624
0.071891
0.124215
0.211804
0.099385
0.248625
0.215908
0.462271
0.106377
0.218323
0.18217
0.112385
0.158588
0.109168
0.218843
0.121011
0.182375
0.0698296
0.135827
0.0847634
0.174809
0.168771
0.177571
0.0937617
0.209845
0.092465
0.173855
0.718181
0.108971
0.0686373
0.137127
0.0945992
0.131318
0.128442
0.125446
0.0737597
0.168509
0.107174
0.116127
0.134844
0.189348
0.0713216
0.123655
0.126548
0.149109
0.114309
0.148542
0.151843
0.178367
0.0576977
0.111007
0.0809559
0.123136
0.30904
0.112959
0.135469
0.152975
0.444593
0.158842
0.0761813
0.15405
0.0696418
0.109573
0.169516
0.197033
0.138315
0.170146
0.0684117
0.12299
0.0523529
0.11921
0.070474
0.147817
0.0617308
0.141195
0.0867671
0.137935
0.220702
0.104962
0.204941
0.123272
0.198221
0.102126
0.131357
0.135167
0.0744706
0.153186
0.190136
0.122387
0.0740348
0.125388
0.105164
0.18698
0.0996919
0.142378
0.108041
0.185548
0.222111
0.107869
0.336454
0.111784
0.118323
0.14928
0.133691
0.160669
0.109057
0.131955
0.0795485
0.132362
0.0677114
0.143093
0.0961644
0.12723
1.14358
0.0917978
1.14338
0.15209
1.14249
0.140811
1.09877
0.124399
1.09824
1.09954
0.545055
0.0881883
1.09805
0.112717
0.543444
0.125267
1.0975
0.1435
0.540088
0.671826
1.0062
0.0863363
0.67135
0.172364
0.667541
1.00426
0.180509
0.114613
0.538362
0.11276
1.00379
0.128772
0.535895
0.143231
1.00282
0.100327
0.17401
0.184484
0.662811
0.118851
0.533939
1.00037
0.194667
0.105106
0.661929
0.130863
0.531306
0.117102
0.660705
0.116949
0.999833
0.170936
0.525341
0.379441
0.448729
0.081989
0.189693
0.315102
0.98929
0.159906
0.30073
0.140456
0.658582
0.0799687
0.989116
0.11167
0.376189
0.160286
0.441806
0.203859
0.426836
0.207014
0.409945
0.0767633
0.175757
0.113877
0.988612
0.983402
0.247702
0.688665
0.854724
0.23771
0.34144
0.667901
0.306029
0.132013
0.65681
0.275663
0.266173
0.167632
0.282256
0.107506
0.666972
0.209153
0.390929
0.273412
0.340003
0.11611
0.258594
0.0870265
0.854423
0.199721
0.243965
0.1934
0.651172
0.140362
0.664893
0.101787
0.241835
0.128571
0.298269
0.113476
0.853755
0.230977
0.242229
0.0990472
0.650407
0.620673
0.330304
0.162167
0.214569
0.188195
0.319582
0.17426
0.660879
0.831019
0.364443
0.213392
0.612148
0.151511
0.658214
0.092102
0.830642
0.188187
0.346885
0.166078
0.65467
0.205125
0.647888
0.0991706
0.327297
0.097797
0.344274
0.107277
0.611048
0.11873
0.829832
0.162517
0.644461
0.595503
0.256996
0.101757
0.783251
0.130378
0.337925
0.578898
0.419193
0.783823
0.447936
0.208449
0.569745
0.233503
0.281597
0.14027
0.413891
0.139702
0.592929
0.377412
0.508116
0.127019
0.782136
0.230063
0.581151
0.153686
0.265428
0.311819
0.34365
0.125869
0.246509
0.165155
0.440323
0.770039
0.279605
0.149676
0.369396
0.215041
0.764407
0.0842665
0.210638
0.170394
0.501647
0.151717
0.299356
0.366237
0.527946
0.101386
0.363628
0.186278
0.346543
0.150662
0.762451
0.187958
0.428598
0.164196
0.330671
0.221134
0.486894
0.157345
0.261898
0.133116
0.761097
0.479172
0.333619
0.33472
0.427128
0.178002
0.418109
0.135191
0.475558
0.249574
0.296522
0.564743
0.638874
0.340722
0.322483
0.260547
0.268908
0.0881081
0.564028
0.263129
0.390847
0.190879
0.465078
0.177587
0.320715
0.249695
0.326599
0.159678
0.328607
0.182032
0.301858
0.195483
0.556089
0.154334
0.635857
0.610985
0.307245
0.181591
0.605591
0.530339
0.417804
0.192688
0.45378
0.19921
0.547433
0.152841
0.294082
0.267895
0.506497
0.258661
0.482932
0.143629
0.412067
0.167949
0.419171
0.281806
0.414201
0.427972
0.440834
0.335859
0.362878
0.295205
0.442943
0.181261
0.347129
0.220332
0.397808
0.235076
0.384801
