# vtk DataFile Version 3.0
Tree
ASCII
DATASET POLYDATA
POINTS 1582 float
162774 225274 273.8
162774 225274 10273.8
141774 225774 23773.8
144122 214254 30497.8
143417 217710 28480.6
131774 208530 51773.8
135267 211284 44785.8
146774 204774 61885.8
132822 209356 49677.4
114774 201774 52805.8
132088 208778 51145
127774 199222 69773.8
145692 204991 58233
161238 193774 68773.8
129068 202089 64185
111582 192774 69773.8
150356 201626 61395.4
147774 196054 80773.8
151027 197571 73421
163082 189774 87773.8
115461 194914 66277.8
95577.8 184774 58773.8
112746 193416 68725
106774 187886 85773.8
159194 194002 66891.4
173846 175774 73773.8
128162 200082 68097
128774 193998 90773.8
148073 196577 80020.2
141774 195998 93773.8
168278 182701 71158.6
171222 167774 59773.8
162221 188973 85392.6
177230 175774 99773.8
101543 187816 61025
90773.8 177974 72773.8
94866.2 181714 68309.4
85773.8 171126 62773.8
126929 195639 86611
116774 193986 104774
170769 172092 65789.4
177026 152774 67773.8
172567 176792 74329.4
181814 161774 85773.8
92581 179602 72457
88773.8 175978 86773.8
143335 196154 92720.2
140774 195998 112774
175149 158569 67178.6
172774 148774 55521.8
174931 176421 99962.2
181886 166774 112774
118648 194009 98137
104774 190018 102774
177574 172755 104831
182014 159774 101774
88501.4 174302 64434.6
79533.8 160774 76773.8
108510 190584 100031
96773.8 184086 94773.8
117720 194278 104160
117774 196002 120774
162824 189533 87059.4
157102 193774 107774
176463 154513 67595
183386 138774 79773.8
180755 144755 75145.8
181774 129774 68501.8
179310 161871 83219.4
183998 148774 89773.8
181224 137863 72089.8
176022 135774 57773.8
142433 196048 110837
143774 195998 128774
84376.2 168079 70110.6
81533.8 148774 63773.8
180672 166767 110834
183998 151774 118774
181522 166772 112192
183774 163074 125774
80986.6 162965 74775
75773.8 161774 99877.8
103111 187595 97612.6
90317.8 185774 107774
77713.8 163775 94205.4
79577.8 173774 107774
181263 131992 68402.6
179814 120774 56773.8
117477 196293 119657
116774 199014 135774
79969.8 161431 76174.2
76361.8 148774 87773.8
142835 196033 116218
155774 194014 122774
142185 196285 125359
134774 197962 135774
138776 197056 130150
144774 195998 142774
170340 181704 96656.6
173910 182774 112774
177143 135043 58995
174082 130774 45773.8
76355.8 162374 98176.2
77601.8 147774 104774
183100 153442 116910
183998 134774 120774
176335 131069 50915
180774 119774 41889.8
115480 197779 131113
105774 196998 142774
183729 152274 118215
183998 145774 136774
175479 130957 48961.4
183774 131154 38773.8
182732 150490 89264.2
183998 135774 98773.8
183453 141402 93424.6
183998 130774 89773.8
82692.6 151326 66044.6
84329.8 129774 67773.8
183330 146329 128793
180054 129774 136774
183797 145940 134380
183998 156774 144774
141835 196633 140035
138774 197886 154774
94439.4 185851 106782
87773.8 181774 126094
183938 145824 136055
180054 137774 146774
153863 193965 122404
167082 189774 132774
78177.8 151104 83293.8
80313.8 133774 84773.8
182803 135937 121333
181774 124654 124774
109642 196820 140513
109138 193774 155774
84884.6 132706 65679
87713.8 121774 61773.8
180067 138026 145991
176774 131774 153166
108172 196887 141372
95737.8 190774 134774
182467 142861 139831
181994 147774 151774
162059 191367 128833
171978 184774 123774
78401.4 148478 104030
81525.8 137774 107774
181434 127780 124854
176774 118774 133950
89523.4 181101 119570
83605.8 166774 127774
178553 135150 149291
175774 123774 145934
77787.8 152647 102274
81773.8 147774 119950
140671 197109 145636
125774 200002 149774
88946.2 180591 124431
89773.8 175774 137982
163566 190889 130015
161070 191774 146774
84227 138292 65788.6
89449.8 128774 50773.8
109289 194688 151195
101774 180774 158862
176559 132295 152425
169774 125130 159774
117569 195528 113768
102774 194054 121774
181672 125591 124798
179966 114774 115774
109292 193420 154925
109774 188442 163774
181804 148161 150225
180774 154774 159890
109224 188597 161805
106774 179946 166774
138598 197636 153675
132774 198042 169774
80298.6 137053 85774.2
84325.8 123774 94773.8
109389 188550 162395
118774 194774 165978
87509.8 123605 61708.2
91713.8 113774 53773.8
160620 191815 142669
153046 193774 149774
83117.8 127757 92073.8
87657.8 116774 86773.8
85746.6 169522 126819
87485.8 158774 136774
137890 197218 160556
144774 193870 171774
90452.6 116723 56154.2
92773.8 117774 44225.8
183880 152089 138353
183886 162774 136774
81881.4 149539 64455
85529.8 141774 53773.8
168209 187279 125696
175774 181258 132774
177635 133837 150733
175774 138578 162774
87652.6 122323 61754.2
93461.8 108774 72773.8
179836 117160 119237
174774 104774 117954
85447 142517 53817.4
88361.8 137774 44773.8
103059 181866 155923
97773.8 168774 157130
176912 120085 132613
168774 110774 141946
84612.2 124380 93817
90773.8 113594 97773.8
81022.2 141677 108124
87525.8 132774 121774
109658 188474 163360
116774 184774 175974
171215 113567 139146
167774 104774 135130
90782.6 115124 65753.8
95485.8 104774 62773.8
142709 194874 168409
138774 195782 180774
169506 111612 141106
165134 114774 153774
180392 153269 159084
176062 156774 172774
99359.4 172701 156768
92317.8 164774 147774
176001 107278 117311
173774 98773.8 110886
170965 127728 159022
161322 125774 172774
84411.8 123956 94486.6
85773.8 124774 106814
114070 186180 171181
111774 175774 176022
175142 105525 117761
169774 101774 126122
86224.6 134057 117835
90773.8 124774 119962
154493 193245 149120
148774 193774 158806
175249 137061 161161
171774 138578 170774
106135 189915 151993
98773.8 185326 147774
164962 114855 153370
160774 117774 163190
88824.2 117209 94952.2
95773.8 106290 89773.8
100469 175451 156515
103578 168774 166774
168993 111025 141694
161774 104774 143322
173031 139334 168249
172066 147774 176774
93482.2 109213 71158.2
98773.8 99661.8 74773.8
173158 183157 131837
176002 179774 143774
164129 127281 170065
162774 132774 179946
177289 157087 168542
173998 167774 176774
90189 114679 96927.4
96541.8 109774 110774
98249.4 169952 157021
100774 157774 161990
183637 156439 142573
181782 168774 148774
93981.8 111008 102167
98289.8 105774 103774
152320 193446 152801
156774 189954 161774
174985 164568 174304
172062 162774 182774
95461.4 105141 63447.4
100774 94257.8 61773.8
173102 104099 120938
166774 94773.8 119946
96652.6 107763 103163
100290 101774 95773.8
89045 128302 119153
95773.8 125774 133970
174442 101325 112813
177386 101774 102774
103478 168671 164957
106774 160774 172010
173974 99539 111464
166774 89501.8 106774
99655.4 103066 96509
102774 99453.8 86773.8
112534 177183 175545
112774 165774 181954
172355 145242 174217
167774 142774 182970
174440 181658 140436
171954 184774 149774
163397 130247 175401
155774 127110 181774
90307 125453 119103
93737.8 116774 116774
144154 194171 170764
152774 188086 170774
172625 162282 180806
168774 154774 189890
96863 109456 109430
103774 105122 117774
154369 191839 156928
164774 187934 156774
171238 95725 109682
172774 91561.8 95773.8
172231 162626 182183
166774 169322 191774
181286 166507 149029
177890 174774 156774
170593 164635 185061
167950 174774 183774
105480 161998 169403
105774 149774 171026
167863 106077 135744
161774 97121.8 131774
101090 101405 92031
108774 93573.8 91773.8
112355 166625 179853
111554 155774 181774
167249 96451.8 120330
157962 88773.8 120774
102750 99290.2 88194.2
107774 92293.8 80773.8
94525.4 127703 131974
99005.8 129774 143774
166999 90347.8 107559
159774 83541.8 106774
99489 107809 112601
108238 97773.8 109774
100388 96148.6 63065.8
108262 86773.8 67773.8
172313 92810.6 99946.2
165774 84257.8 95773.8
102489 105928 116222
103122 109774 125774
168451 143580 181866
163774 143774 191970
100658 94825 62161.4
102318 89773.8 51773.8
166279 85925.4 97180.2
156774 79673.8 97773.8
102091 109240 121947
97701.8 117774 127774
177320 173808 155976
171974 180774 162774
166991 168865 189591
158774 177774 192970
97125.4 130232 140204
96773.8 138226 147774
103388 105364 117308
109574 102774 123774
112035 156446 180879
112358 145774 180774
173062 92580.2 96835.4
176774 93573.8 85773.8
95478.6 104884 62975.8
97553.8 99773.8 53773.8
150188 189911 170771
153774 183774 181970
108297 87623.8 67203.8
115138 81773.8 69773.8
174473 92957.8 92632.2
171266 85773.8 85773.8
103387 109221 124852
108774 107774 133130
111698 155975 181505
115774 153774 191026
105925 90181.4 65962.2
111998 79773.8 58773.8
162667 83549.8 97405.8
159774 79717.8 89773.8
112751 83449.4 67828.6
119102 75773.8 63773.8
174610 165786 175243
173774 174774 170970
97288.6 136704 147003
99773.8 142774 156866
161737 81373.4 92075.4
164906 79773.8 82773.8
96928.2 137769 147543
94773.8 149774 149958
172575 179173 162058
165958 182774 170774
108439 107465 131289
116774 102774 135946
112931 146389 180390
114774 135774 179282
172228 87929 87831.4
176030 86773.8 77773.8
109192 102728 122448
118774 97453.8 126774
106520 150605 170190
108774 138774 169894
99028.2 140953 153907
104338 137774 160774
95625 142271 147594
91773.8 146774 143250
114551 154434 188170
118366 141774 190774
117197 78076.6 64990.2
125550 75773.8 69773.8
115941 154023 190565
122118 152774 199774
165281 79977 83974.6
170774 78213.8 73773.8
112273 105307 133431
114774 108206 141774
109515 140040 170235
113998 129774 170774
114221 138958 179614
121774 132006 186774
112833 100724 124092
118302 92773.8 117774
167464 181131 170225
163774 181022 178774
119771 153249 196275
123774 142774 199138
165018 79834.6 83134.2
159774 73549.8 73773.8
120267 134271 185961
125574 134774 194774
168431 77789.4 76436.2
167774 70773.8 67289.8
120719 133591 186205
121774 126342 179774
115819 103895 135961
123774 103006 143774
116487 103110 135950
124666 97773.8 136774
115094 107717 141219
118774 109774 149326
117955 97764.6 125555
127774 91497.8 124774
93853.4 144342 145595
89557.8 139774 133774
124337 93169.8 124085
127774 87773.8 117898
91533.8 141875 139212
86773.8 148774 132026
117375 108992 146245
112774 116774 151970
118354 109539 148401
126774 105774 151138
122886 102757 141664
132774 99509.8 143774
114870 108059 141607
106774 116170 141774
[...]
CELL_DATA 1581
SCALARS radius float
LOOKUP_TABLE default
2.122e-314
100
100
1.15834
1.15781
0.104858
0.944169
0.890018
0.941405
0.194614
0.0506957
0.941356
0.0772283
0.888925
0.654312
0.81847
0.832881
0.498609
0.753566
0.527932
0.273487
0.806847
0.152051
0.252841
0.0742252
0.496285
0.652889
0.122195
0.0569359
0.525069
0.44574
0.308928
0.271782
0.739963
0.803608
0.155268
0.251269
0.795335
0.651257
0.11306
0.218079
0.427612
0.11583
0.303402
0.145276
0.23391
0.133386
0.519555
0.406088
0.219494
0.728328
0.133206
0.399017
0.585843
0.720704
0.228983
0.0862618
0.794996
0.387025
0.177131
0.583661
0.130808
0.0555182
0.271008
0.155794
0.398296
0.357837
0.237312
0.180782
0.273518
0.233768
0.3209
0.078746
0.513663
0.734207
0.47278
0.193514
0.716023
0.0573755
0.191818
0.637516
0.515109
0.139355
0.380906
0.491158
0.258356
0.0989552
0.227701
0.577701
0.105981
0.060829
0.637331
0.379843
0.432186
0.425935
0.133717
0.166312
0.41731
0.730531
0.226654
0.0947447
0.318123
0.0760414
0.490549
0.591101
0.543524
0.28578
0.206886
0.571885
0.129048
0.0601339
0.590893
0.12407
0.277762
0.149869
0.251768
0.157605
0.213131
0.449961
0.200915
0.136355
0.588463
0.547609
0.340748
0.410106
0.138769
0.140373
0.366775
0.0617355
0.547347
0.121483
0.375655
0.210884
0.627392
0.533146
0.157066
0.224331
0.560139
0.160453
0.435994
0.0672212
0.428234
0.0858669
0.220056
0.435932
0.431099
0.307351
0.282774
0.0724969
0.474426
0.469365
0.363781
0.298547
0.235388
0.41455
0.193903
0.47499
0.221589
0.394305
0.197209
0.287927
0.13993
0.105693
0.303127
0.443121
0.159949
0.48874
0.389307
0.0729934
0.340289
0.578888
0.169138
0.0677822
0.468893
0.478737
0.191496
0.42823
0.149776
0.467291
0.197324
0.38408
0.16687
0.148132
0.622864
0.130063
0.463908
0.408923
0.236164
0.27241
0.157283
0.125405
0.619997
0.179133
0.179538
0.179494
0.35308
0.157914
0.18215
0.32852
0.160157
0.0666497
0.19844
0.149336
0.268147
0.341405
0.315644
0.0612114
0.408466
0.464599
0.141048
0.0768451
0.183971
0.0978352
0.370835
0.0857806
0.342288
0.158007
0.616558
0.470735
0.135235
0.0570209
0.463621
0.277699
0.242749
0.217869
0.386661
0.290325
0.260277
0.260401
0.155469
0.41364
0.127506
0.242872
0.190297
0.255071
0.437412
0.104872
0.319874
0.0523318
0.156069
0.112298
0.461414
0.0731987
0.253045
0.195281
0.4566
0.102756
0.267447
0.0977524
0.304086
0.373091
0.191928
0.0810696
0.257755
0.6109
0.185597
0.276841
0.30996
0.0687638
0.150849
0.111991
0.298937
0.158138
0.185537
0.169612
0.233601
0.277488
0.180059
0.114954
0.406882
0.0758411
0.61051
0.0853659
0.239305
0.321432
0.130959
0.261045
0.594168
0.156398
0.226488
0.379076
0.234454
0.14864
0.379196
0.127415
0.241783
0.249699
0.130453
0.187579
0.442853
0.138353
0.432749
0.0940288
0.307048
0.0773746
0.431923
0.0904598
0.245677
0.0861317
0.460412
0.258689
0.181094
0.143959
0.180161
0.178816
0.250127
0.0850566
0.181558
0.0945692
0.286941
0.355192
0.212982
0.591178
0.146601
0.163793
0.193311
0.213816
0.413699
0.0802074
0.353824
0.145482
0.311174
0.324
0.217461
0.115502
0.3015
0.0988784
0.237153
0.15572
0.222751
0.0983968
0.455781
0.172277
0.208173
0.102503
0.215267
0.107173
0.437723
0.09497
0.207379
0.586506
0.169377
0.205031
0.351623
0.357208
0.285656
0.498148
0.427514
0.124406
0.248719
0.0804101
0.200823
0.11109
0.35359
0.138061
0.494588
0.0961268
0.27242
0.124311
0.317781
0.12144
0.415447
0.423647
0.12808
0.354107
0.362311
0.097615
0.281805
0.055871
0.14596
0.191641
0.255029
0.0958248
0.312077
0.154126
0.249579
0.0783623
0.493932
0.0662691
0.353332
0.31506
0.17668
0.153373
0.343697
0.140834
0.302208
0.10963
0.226175
0.357964
0.295625
0.135409
0.336543
0.0792134
0.356666
0.245129
0.176384
0.092934
0.492832
0.0898285
0.354398
0.196745
0.199419
0.0835384
0.422561
0.106622
0.296988
0.19583
0.263646
0.330471
0.210148
0.212461
0.306529
0.21653
0.25937
0.0815359
0.293026
0.218587
0.302472
0.270525
0.464009
0.265663
0.195268
0.131598
0.348243
0.145379
0.416746
0.156285
0.221804
0.148654
0.279675
0.0893934
0.213485
0.197434
0.325657
0.235771
0.244225
0.132749
0.318132
0.221235
0.207775
0.14081
0.200303
0.457267
0.162506
0.0904892
0.415319
0.191856
0.307335
0.301619
0.353565
0.176468
0.264118
0.37186
0.353544
0.362805
0.154186
0.129322
0.189518
0.0608264
0.159615
0.291428
0.255536
0.08407
0.289077
0.116191
0.349311
0.336129
0.213841
0.204425
0.266355
0.134148
0.242565
0.133366
0.342706
0.189549
0.190322
0.116009
0.28271
0.270187
0.273802
0.195462
0.23056
0.054042
0.203158
0.216909
0.231397
0.101758
0.224642
0.237157
0.290985
0.124404
0.225148
0.229119
0.234425
0.11264
0.285246
1.15809
0.0993271
0.157852
1.15659
1.15757
0.098557
0.106655
0.13959
0.0482944
0.137636
0.08992
0.88943
0.161468
0.146763
0.939181
0.173512
0.113905
0.139795
0.113315
0.119493
0.817187
0.137042
0.0860766
0.12794
0.0768936
0.168325
0.831582
0.13923
0.111692
0.105681
0.0511717
0.100354
0.752593
0.118314
0.0640758
0.165171
0.805536
0.122408
0.0503689
0.150186
0.102904
0.150612
0.65239
0.0860364
0.490548
0.161219
0.751988
0.100905
0.212896
0.179633
0.0707212
0.144766
0.150571
0.184061
0.737732
0.154008
0.0811945
0.14225
0.0687555
0.156938
0.0485326
0.131209
0.0560995
0.111266
0.0811656
0.146094
0.729811
0.104827
0.207758
0.111974
0.0685212
0.176246
0.130132
0.159163
0.0564189
0.126497
0.64199
0.226521
0.0582709
0.142081
0.131701
0.188362
0.514279
0.161715
0.0473297
0.128709
0.297651
0.115936
0.170771
0.17656
0.0805213
0.132877
0.0598862
0.152787
0.0578129
0.219804
0.0980256
0.204131
0.150678
0.171962
0.0858882
0.153198
0.0843899
0.128164
0.0808995
0.230638
0.11578
0.395007
0.522469
0.128859
0.513915
0.0982508
0.162582
0.197543
0.11782
0.138591
0.0619569
0.218151
0.464697
0.174655
0.0732978
0.172844
0.168251
0.195793
0.0892544
0.138472
0.0983447
0.105925
0.13181
0.37557
0.0750685
0.193861
0.0843601
0.213862
0.158751
0.124019
0.218866
0.20625
0.462936
0.104362
0.219635
0.140435
0.575164
0.136238
0.0566843
0.135355
0.158194
0.179903
0.0755501
0.169809
0.0848715
0.18828
0.0714065
0.166504
0.13294
0.149667
0.574067
0.10283
0.0715522
0.171078
0.635235
0.136536
0.0623936
0.129027
0.0721092
0.129473
0.092872
0.195228
0.224246
0.181389
0.129848
0.139371
0.0806716
0.130862
0.126505
0.188391
0.0882475
0.164809
0.540688
0.135728
0.0630792
0.115527
0.0691188
0.122067
0.0657788
0.208729
0.130405
0.133561
0.0845422
0.210215
0.182977
0.143706
0.207483
0.139449
0.149342
0.181294
0.0851637
0.202585
0.357116
0.156003
0.14991
0.26237
0.372399
0.11097
0.625644
0.127197
0.133933
0.151682
0.115548
0.16611
0.143351
0.175099
0.341
0.180611
0.0584945
0.154314
0.0727845
0.128928
0.0713476
0.119225
0.0712994
0.123497
0.112917
0.152797
0.100485
0.140644
0.0654421
0.143746
0.124023
0.206052
0.0666154
0.15653
0.367911
0.189995
0.125659
0.279717
0.122359
0.171299
0.12027
0.201271
0.0898468
0.143409
0.0501606
0.190341
0.145874
0.161168
0.156362
0.170144
0.323588
0.158927
0.288873
0.130805
0.0874242
0.13204
0.0798476
0.134565
0.344075
0.183116
0.0781214
0.149755
0.103454
0.167268
0.0838287
0.14033
0.21531
0.121736
0.142057
0.142869
0.122179
0.424888
0.248096
0.187719
0.0648102
0.133887
0.147251
0.144763
0.0787851
0.149388
0.126592
0.336416
0.468209
0.118643
0.0950729
0.17414
0.155876
0.163443
0.075325
0.166819
0.417639
0.156858
0.0874013
0.244426
0.0610934
0.137119
0.0778284
0.151343
0.142821
0.249391
0.329334
0.133037
0.621703
0.110479
0.116534
0.182723
0.409918
0.123713
0.131247
0.231099
0.100607
0.145649
0.126315
0.12133
0.108144
0.150038
0.112883
0.156627
0.144976
0.149476
0.249029
0.154477
0.140732
0.215341
0.0572589
0.146622
0.118247
0.173667
0.145851
0.244016
0.285415
0.151299
0.075253
0.157942
0.171789
0.122234
0.307417
0.133803
0.0844407
0.18987
0.14608
0.143958
0.300754
0.176785
0.0942274
0.140958
0.0833814
0.16261
0.0768355
0.150455
0.140204
0.147801
0.206699
0.157627
0.233757
0.163262
0.127335
0.162972
0.457305
0.125195
0.138185
0.228248
0.108793
0.16182
0.439854
0.120558
0.0787613
0.13734
0.0823898
0.175221
0.117716
0.145049
0.15928
0.198743
0.0839366
0.173761
0.117826
0.172964
0.0822725
0.203798
0.0907594
0.15299
0.0824405
0.149339
0.113092
0.119449
0.409935
0.124183
0.0770738
0.120786
0.276352
0.208205
0.0458524
0.117153
0.155887
0.212159
0.373474
0.134467
0.177064
0.222639
0.133372
0.182637
0.453798
0.120319
0.141304
0.188785
0.107933
0.24324
0.418877
0.218089
0.17911
0.205242
0.147242
0.342797
0.106014
0.198607
0.130639
0.195147
0.451374
0.13959
0.16087
0.303398
0.108239
0.187254
0.135681
0.133164
0.0870954
0.169741
0.0506044
0.125391
0.202127
0.192452
0.356311
0.132453
0.164257
0.176983
0.267808
0.146926
0.157084
0.161638
0.126798
0.190193
0.33735
0.178832
0.198132
0.272119
0.0928886
0.167341
0.332588
0.151726
0.128797
0.211295
0.12771
0.209825
0.138663
0.189149
0.128932
0.201895
0.22454
0.206684
0.175789
0.160807
0.0974789
0.194017
0.0986264
0.19103
0.295116
0.145793
0.0547502
0.137995
0.122731
0.209441
0.0965948
0.209923
0.146423
0.225244
0.0886158
0.171263
0.118264
0.180245
0.198618
0.212629
0.159208
0.24267
0.206448
0.215088
0.0968061
0.183261
0.123525
0.177164
0.147586
0.191919
0.292053
0.19387
0.161025
0.216268
0.346043
0.1403
0.105021
0.223055
0.158948
0.261392
0.178895
0.229796
0.136556
0.17641
0.288128
0.172235
0.164058
0.175038
0.072121
0.170858
0.138454
0.187828
0.128812
0.255909
0.13529
0.164083
0.0999811
0.250717
0.0702465
0.149164
0.177906
0.246046
0.14753
0.232381
0.156852
0.218369
0.135321
0.231567
0.137432
0.17956
0.190654
0.25344
0.160269
0.22997
0.124783
0.221993
0.0602028
0.0977757
1.15647
0.0778643
0.108397
0.110074
0.889737
0.0874012
0.941151
0.0816539
0.889119
0.0903418
0.0511249
0.116288
0.888631
0.0886429
0.0508423
0.101604
0.100329
0.119092
0.0843503
0.497803
0.104607
0.0879325
0.496838
0.0894632
0.0838449
0.107569
0.0699748
0.110424
0.269983
0.0919112
0.0684043
0.11014
0.249041
0.0895427
0.526137
0.114364
0.525292
0.0888301
0.806477
0.0897156
0.0917141
0.143771
0.0705734
0.104596
0.10265
0.140671
0.111812
0.117831
0.0690333
0.103732
0.0932495
0.125418
0.112402
0.119302
0.104988
0.14219
0.0624625
0.139729
0.0889392
0.126505
0.12005
0.155286
0.426427
0.0865468
0.0824777
0.119297
0.0481069
0.108932
0.0569773
0.186608
0.126207
0.151739
0.0586794
0.129297
0.110739
0.138258
0.0879252
0.114007
0.0998526
0.176545
0.211404
0.104058
0.0969775
0.166196
0.22113
0.0932292
0.101783
0.139077
0.0917973
0.12468
0.108617
0.392251
0.0980271
0.136651
0.0840785
0.115426
0.794471
0.0998641
0.100646
0.159603
0.108015
0.132672
0.0717958
0.163775
0.0943709
0.139696
0.389706
0.105285
0.0880785
0.117125
0.0652849
0.160241
0.060847
0.118931
0.268353
0.104385
0.268042
0.0864664
0.145669
0.164046
0.178653
0.110678
0.430284
0.101997
0.0824328
0.156792
0.201997
0.133007
0.101228
0.156067
0.205756
0.145732
0.0830825
0.150154
0.0703473
0.134286
0.0504355
0.102028
0.137293
0.147891
0.0672782
0.133936
0.175152
0.119952
0.373505
0.0954374
0.156266
0.153617
0.415336
0.100876
0.119368
0.140537
0.188336
0.104278
0.177873
0.147781
0.120004
0.142406
0.132749
0.163054
0.192193
0.118745
0.214678
0.111409
0.537652
0.138341
0.238675
0.133186
0.0922431
0.12972
0.101914
0.116694
0.0934079
0.172725
0.049115
0.112511
0.080376
0.125595
0.133414
0.140582
0.546212
0.100596
0.180619
0.121134
0.0809404
0.175748
0.170706
0.16759
0.214674
0.0995683
0.151431
0.244344
0.187801
0.199706
0.088955
0.15713
0.360561
0.108219
0.113077
0.16443
0.434252
0.0984411
0.15379
0.150847
0.0872462
0.140414
0.0891549
0.167028
0.104062
0.149164
0.0600801
0.164232
0.0887391
0.167858
0.29755
0.114708
0.433654
0.109898
0.0638286
0.128513
0.225949
0.114646
0.335893
0.114662
0.107569
0.136738
0.428786
0.108652
0.0991884
0.133036
0.22757
0.111499
0.113031
0.153012
0.151652
0.146234
0.0625381
0.14605
0.0892955
0.161516
0.0800396
0.137552
0.0666509
0.129607
0.347888
0.124153
0.153623
0.13422
0.260251
0.118253
0.0884336
0.151754
0.167304
0.129305
0.0764017
0.136395
0.0697266
0.120138
0.13167
0.21587
0.10174
0.150023
0.139737
0.110888
0.0780694
0.13131
0.0850154
0.150365
1.13086
0.082518
1.13071
0.145058
1.12991
0.150411
1.12792
0.12913
0.70539
0.140654
0.703521
1.12881
0.161762
0.70683
1.02655
0.142245
0.701577
0.117009
1.02605
0.685567
0.284824
0.0869526
0.6851
0.104246
1.02569
0.134502
0.274453
0.168641
0.681677
0.090046
1.02546
1.01938
0.26707
0.163938
1.01797
0.10403
0.680869
0.164712
0.67764
0.0852744
1.01777
0.13811
0.254143
0.112424
0.676607
0.979105
0.487194
0.194137
0.20876
0.120482
0.675331
0.0837589
0.9789
0.132174
0.483929
0.184366
0.67072
0.661767
0.865446
0.11954
0.669451
0.409551
0.354726
0.180769
0.65724
0.263989
0.369132
0.0757494
0.865252
0.0774913
0.656881
0.185898
0.664639
0.0983391
0.352189
0.0975283
0.259475
0.214034
0.221505
0.141851
0.362014
0.153649
0.240107
0.129218
0.346292
0.85905
0.240043
0.111765
0.6558
0.136852
0.85789
0.631444
0.31166
0.180443
0.855221
0.244584
0.299612
0.647953
0.278333
0.111838
0.630273
0.183949
0.345435
0.201125
0.641428
0.204973
0.278754
0.2353
0.304349
0.190895
0.271166
0.247043
0.23582
0.107645
0.854652
0.0989312
0.274537
0.0913931
0.235543
0.44731
0.811685
0.183213
0.244086
0.126445
0.628572
0.101124
0.27381
0.110411
0.640336
0.20156
0.633608
0.15596
0.210102
0.135674
0.626458
0.118452
0.444523
0.0972199
0.811219
0.188162
0.432989
0.579993
0.37023
0.169392
0.80875
0.125614
0.264698
0.113523
0.57854
0.105929
0.63262
0.602674
0.324842
0.125157
0.429475
0.137862
0.60026
0.14852
0.807077
0.173444
0.41983
0.430937
0.76385
0.129858
0.42697
0.141244
0.57572
0.156712
0.360623
0.159368
0.76153
0.233978
0.277931
0.520602
0.367732
0.160486
0.515468
0.22474
0.337303
0.111575
0.271803
0.24457
0.496421
0.19648
0.593159
0.120372
0.760526
0.247675
0.578401
0.199373
0.411958
0.164255
0.490353
0.241758
0.320002
0.273341
0.367147
0.197815
0.756039
0.121247
0.754998
0.188226
0.296629
0.182643
0.751418
0.236042
0.293276
0.132981
0.262419
0.268785
0.558367
0.186831
0.48114
0.127885
0.556122
0.187863
0.747484
0.183951
0.35106
0.327342
0.42415
0.512107
0.656805
0.165006
0.506332
0.276804
0.38052
0.182544
0.549487
0.212597
0.538668
0.153676
0.412851
0.13092
0.655067
0.190509
0.398861
0.244322
0.643536
0.172987
0.336461
0.265103
0.355223
0.170803
0.499768
0.21554
0.48603
0.143595
0.641144
0.232809
0.630744
0.200358
0.623931
0.138871
0.603011
0.221979
0.592812
0.246349
0.520914
0.504965
0.430112
0.291457
0.488529
0.229085
0.488732
0.605456
0.27565
0.188045
0.47646
0.250799
0.452069
0.20955
0.412849
0.358121
0.413426
0.312463
0.441796
0.326513
0.386147
