# vtk DataFile Version 3.0
Tree
ASCII
DATASET POLYDATA
POINTS 1582 float
162774 225274 273.8
162774 225274 10273.8
141774 225774 23773.8
145774 214254 30497.8
142974 222318 25791
122774 207918 42773.8
144934 216673 29085.8
146774 205774 60793.8
146222 209043 51281.4
126774 201774 64805.8
124012 208253 43051.8
111774 198774 55161.8
146608 206755 57940.2
160774 193974 67773.8
134164 204536 59666.6
136774 197774 79201.8
155676 198065 66711.8
159774 191242 84773.8
128132 201481 64551.4
113774 191194 78773.8
112330 198579 53977.8
99773.8 187246 64773.8
159032 194399 66587.4
169814 179774 63773.8
160369 191899 80877
171930 182774 91773.8
134669 199071 75547.4
126774 193998 90773.8
131669 197143 81333.4
140774 195998 94773.8
167472 180057 64674.2
173774 164070 63773.8
168719 184567 87119.8
177898 172774 85773.8
171387 182425 91312.6
177910 174774 102774
100876 187735 62695.4
85773.8 172802 72773.8
115568 193578 78702.6
103774 187954 94773.8
170707 169923 62201
171222 156774 49773.8
90304.6 177282 69750.2
88281.8 175774 86773.8
127227 195107 90269.8
117774 194054 110774
137447 196399 92729.8
139774 195998 113774
173074 165193 64371.8
179946 150774 73773.8
176967 174422 101906
181998 164774 112774
138145 196279 99043
155774 193982 106774
177437 154001 69503
179202 137774 66773.8
87572.6 173201 70989.8
79529.8 156774 72773.8
175293 176823 98728.2
183970 155774 99773.8
86827 175207 84126.2
80773.8 172026 96773.8
87845.4 175604 85979.4
90773.8 182774 99589.8
119763 195348 109691
116774 197774 124482
137804 196097 109878
129774 196006 122774
118371 194442 110449
104774 193994 115774
139183 196028 112605
150774 195998 118774
145442 196011 115936
145774 195998 129774
154398 193075 104918
165970 188774 106774
178672 142642 67592.6
183998 131774 80773.8
179043 139234 67019.4
178774 121958 56773.8
181895 158586 97563
183998 147774 92773.8
181214 135311 72207
183186 125774 72773.8
178116 132159 59171.8
175962 128774 47773.8
183347 156617 99110.6
183998 141774 119774
183803 146227 113575
183998 155774 132774
81983.8 158829 71732.2
81545.8 139774 68773.8
80265.8 157391 72461.4
76325.8 147774 92773.8
77875.8 152400 87624.6
77545.8 156774 106774
81677 145491 69661.4
85445.8 140774 56773.8
116321 197147 122769
107774 197978 140774
82268.2 172989 95335.4
79773.8 172774 110890
78259.8 151594 97862.2
79529.8 145774 107774
183801 143129 119208
183194 137774 134774
80721.8 172856 104979
87773.8 185258 114774
145648 196003 124515
159074 193774 131774
155173 194034 128253
164774 190062 124774
76790.6 149161 91229
79565.8 135774 93773.8
145736 195999 128196
143774 195982 152774
113073 197463 129611
122774 200002 143774
141140 196837 141160
135774 198002 146774
82355.4 141159 68597.4
86773.8 125578 63773.8
183939 142180 119604
182010 127774 123774
109485 197457 139580
109774 195254 153774
183914 152776 129832
183774 152774 148790
180489 167668 109513
181230 169774 122774
84529.8 179553 110268
86773.8 175774 129322
182291 133549 123801
178094 124774 136774
87079 183437 114569
92773.8 189774 127154
182599 138660 133248
177774 133774 153894
158334 193357 131380
165774 189994 139774
84749.8 177023 116943
81773.8 168774 121202
142984 196238 149290
132774 198066 162774
78787 140411 91139.4
82525.8 127774 82773.8
109618 196444 146109
100774 184774 151962
79099.4 149117 104912
80357.8 151774 117774
181875 129319 122947
180022 117774 117774
106124 191005 150100
106774 186774 159982
86000.6 129096 63536.2
89773.8 120658 52773.8
163645 189974 125293
175226 181774 121774
79673 146206 106365
82365.8 134774 109774
179098 126445 131838
174774 114774 133950
79879.8 150764 112886
83593.8 141774 120774
177841 124799 136461
173774 120774 146882
87084.2 175434 127889
90773.8 172774 141890
177092 133826 151425
171202 129774 162774
83582.2 171341 120991
85549.8 161774 132774
106579 188043 157017
116774 193774 166890
182245 153615 147229
180010 154774 161774
86541.8 126633 63702.6
90365.8 111774 71773.8
135837 197517 158729
141082 195774 170774
79897.8 136433 92710.2
84773.8 123590 95773.8
91516.2 187503 125437
94773.8 185774 139162
172969 130989 159369
166038 120774 158774
88641.8 123189 56002.6
93489.8 108774 58773.8
106700 187256 158855
101506 173774 160774
84649.8 125059 93538.2
88773.8 115774 93149.8
162352 191541 135913
173258 183774 132774
91179.8 116253 55203.4
93549.8 110774 50773.8
133693 197901 161560
122774 199910 160774
91890.6 114609 53874.6
93493.8 116774 43773.8
111269 190679 161559
113774 183774 173978
179787 118999 119171
174774 104262 117774
85057.4 140323 58097.8
88365.8 133774 46773.8
142431 196418 146851
154774 192018 152774
177569 133789 153153
177194 141774 162774
83255.8 142521 118644
88341.8 129774 120774
139317 196052 169490
140774 194774 179954
171064 129726 161745
162774 124310 169774
89667 173572 137690
90773.8 161774 143970
140553 195857 170389
150034 189774 171774
179640 155056 161138
176774 156774 171970
80616.6 151060 116932
83673.8 149774 126774
183677 155645 132534
182014 165774 141774
88432.6 117161 92642.2
94289.8 107774 88773.8
102183 176154 159556
96325.8 164774 155774
175369 106398 115771
171774 96365.8 111774
174697 116245 133495
165886 102774 134774
88671.4 116190 92997.4
93773.8 111774 104134
101709 174488 160408
102318 164774 165774
171007 111562 135279
165330 108774 143774
171161 129759 162465
170542 137774 171774
84736.6 124031 95103
87617.8 122774 108774
113071 183463 171627
114126 174774 179774
166912 121803 158124
161238 112774 155774
92419.4 110639 88727.8
95573.8 104774 78773.8
169986 186104 133715
176098 178774 142774
167422 105410 134925
167290 98773.8 125774
177161 157430 169858
174010 164774 177774
93465.8 109351 58649.8
97773.8 98473.8 64773.8
150083 193690 150523
150774 192006 160774
170727 135369 168981
162774 132774 179946
91835 113452 99901.8
98773.8 104774 99973.8
182517 162813 141337
181910 166774 150774
176890 156971 171336
171774 149774 181058
83492.2 141998 120135
89497.8 136774 130774
141063 194343 175989
147314 187774 183774
96692.2 107377 99952.2
99573.8 102774 92773.8
88242.2 136922 127190
95541.8 124774 131774
176695 110179 116791
177774 102774 104806
93686.6 112081 103862
97997.8 109774 112774
167073 98966.6 126290
166402 93773.8 119774
94979.8 111389 106536
92773.8 117774 115162
176922 103596 107617
173774 94365.8 101774
174297 162931 177037
169982 165774 187774
102357 165812 164605
103774 153458 167774
166214 94337.8 120140
164774 88369.8 111774
98139.8 99356.2 63584.2
102774 92301.8 65773.8
165349 89552.6 112211
165182 85773.8 103774
99663.8 103105 94011.8
105774 96257.8 87773.8
114039 175035 178847
115022 165774 185774
163003 133061 179226
156774 131574 186774
96638.6 102453 60513.8
101774 90773.8 56809.8
173286 182146 138607
171250 184774 151774
171731 150117 179602
165774 142774 186970
93579.4 129166 131597
99773.8 125774 141970
154252 192043 152966
162774 188014 159774
171276 164921 184553
166774 154774 193958
97092.6 110258 110902
105774 100774 113130
114727 168552 183696
110326 154774 179774
174221 95753.8 101714
171774 88773.8 94881.8
97726.2 109919 112212
102774 108774 121966
181389 166964 149346
177018 175774 158774
169913 165899 187188
164774 169774 195322
104441 156100 168327
107774 148774 173370
166727 168301 192231
161774 176774 191110
102363 93152.6 64927.4
108774 84773.8 63949.8
167178 100900 128881
158774 92773.8 127950
94953 126091 131721
96773.8 117774 125318
164230 86396.6 105887
157966 80773.8 97773.8
98241.4 127390 140008
100774 130774 147962
105613 96487.8 87639.4
110774 90773.8 81957.8
99203.8 128676 143031
95773.8 137578 145774
102651 92557 65519.8
104338 93773.8 75773.8
176668 174691 156877
170774 181974 162774
103295 103219 111180
109774 94525.8 104774
113193 161521 182910
114774 152774 187890
171459 89678.2 95871.4
164806 81773.8 88773.8
105030 101507 112545
111774 100002 122774
113939 155275 185032
113666 143774 182774
148417 190576 172407
156774 183774 178970
102659 108672 120811
109574 106774 131774
171679 89045 95178.6
172774 86773.8 83969.8
95499.4 123596 129800
101774 116006 132774
164946 88724.6 111905
156774 83773.8 112898
108841 85885.4 64291.4
118174 76773.8 63773.8
164052 172877 191625
156774 175774 198862
93396.2 111023 51687
97549.8 100774 47773.8
174096 164221 177553
173774 174774 170970
96802.6 134907 144951
99773.8 143774 157182
171691 86728.6 87515
167774 80773.8 81269.8
97931.8 138277 149599
94361.8 149774 149774
160613 188648 159251
163774 184774 169166
108855 106554 129234
117774 101546 134774
113755 145619 182570
113774 134774 176962
172728 86447 84486.6
175774 84577.8 76773.8
113162 141873 179404
109482 139774 170774
164686 83463.4 89715.4
156774 78773.8 84025.8
113693 144327 182713
119006 139774 189774
96082.6 136777 145527
91773.8 143774 141974
114523 153524 187033
121774 151774 199282
116718 79083.4 64753.4
125774 75697.8 69773.8
174860 85138.6 79087.8
171374 78773.8 73773.8
109890 139493 171706
105682 135774 161774
112244 104651 131339
114774 108206 141774
117412 141140 187655
121774 132330 187774
167851 81375.4 81906.6
160774 73585.8 73773.8
114788 103223 132919
122366 93773.8 125774
155777 185001 177171
165774 179418 178774
113749 135851 176644
114774 128774 169982
119957 96036.2 126583
119774 91709.8 117774
171761 79130.6 73869.4
168774 72773.8 68041.8
118527 140184 189138
125774 140774 200866
114806 106057 137734
122774 103774 144966
120377 134495 186752
122698 125774 180774
92032.6 143495 141740
87773.8 150774 137078
117231 101733 133714
124774 96773.8 133958
115068 107781 141313
116774 111774 150890
121436 103830 142706
128582 99773.8 142774
122314 94323.8 125767
130774 89461.8 122774
128236 90920.6 123672
128774 86773.8 113958
115579 108979 144186
108774 118218 147774
122372 103791 144288
129582 105774 153774
113538 111751 145262
106774 114774 139966
130523 89548.6 122740
136774 85601.8 119774
109920 117220 147936
107774 123562 153774
127522 106034 152193
128774 111458 160774
135006 86433.4 119552
139774 81673.8 110774
129442 87191.4 114775
131774 83525.8 105774
136243 85851.4 119707
144774 83769.8 118774
95605.8 147509 150567
[...]
CELL_DATA 1581
SCALARS radius float
LOOKUP_TABLE default
2.122e-314
100
100
1.16295
0.990916
0.843357
0.0699293
0.990799
0.805669
0.76471
0.142049
0.839861
0.129862
0.804542
0.297665
0.747122
0.753591
0.446413
0.0635508
0.287952
0.060043
0.830864
0.235716
0.422065
0.751791
0.111517
0.745027
0.143534
0.583928
0.598549
0.075581
0.419771
0.741873
0.229574
0.0555204
0.741769
0.0712593
0.829017
0.0879434
0.281423
0.128544
0.413467
0.449268
0.781572
0.0628425
0.581711
0.596599
0.114694
0.069965
0.412798
0.0663445
0.241789
0.290525
0.57044
0.376672
0.188427
0.0745053
0.780372
0.243443
0.732511
0.177
0.435137
0.0622101
0.1744
0.255933
0.560066
0.556605
0.224527
0.0592035
0.151728
0.5553
0.106582
0.0996514
0.554228
0.159045
0.261912
0.345857
0.207966
0.0808866
0.344376
0.723119
0.236543
0.142778
0.182555
0.300529
0.217716
0.0654738
0.72294
0.624248
0.506615
0.723562
0.448212
0.0606186
0.723421
0.493225
0.634632
0.433321
0.198233
0.0742407
0.558265
0.214004
0.415507
0.485958
0.173531
0.53899
0.442559
0.4077
0.14002
0.479762
0.385036
0.332929
0.267329
0.0758029
0.634272
0.0739844
0.479175
0.549579
0.190735
0.116704
0.461159
0.0719873
0.432657
0.0532743
0.538816
0.541938
0.123368
0.235357
0.489083
0.0997876
0.235986
0.27592
0.356973
0.436276
0.418679
0.0879238
0.272911
0.0804636
0.439774
0.0697296
0.331906
0.223113
0.325171
0.417197
0.137382
0.627594
0.176348
0.538379
0.146056
0.187795
0.476424
0.0784315
0.433519
0.117298
0.536516
0.200019
0.413593
0.0794854
0.264966
0.0764016
0.183482
0.182738
0.404773
0.144927
0.46992
0.0621113
0.180314
0.0890138
0.302113
0.408321
0.187747
0.158197
0.192626
0.342575
0.48521
0.133522
0.473357
0.0710855
0.19698
0.268323
0.361416
0.0687579
0.627319
0.117932
0.172395
0.328598
0.319442
0.100963
0.39893
0.333012
0.148485
0.165034
0.622498
0.113168
0.306735
0.215361
0.376804
0.254806
0.140524
0.134936
0.196019
0.122057
0.482622
0.425523
0.129392
0.145644
0.167511
0.422105
0.278412
0.0740346
0.183829
0.454837
0.195567
0.304909
0.253735
0.301787
0.199963
0.222455
0.242032
0.0773552
0.30324
0.172366
0.458456
0.0786139
0.136766
0.0563337
0.234276
0.61189
0.212151
0.149437
0.317178
0.14826
0.153156
0.08287
0.399866
0.0556519
0.611737
0.308205
0.138073
0.383763
0.176078
0.0623138
0.300899
0.065226
0.161565
0.0943449
0.475362
0.160981
0.258776
0.102553
0.203842
0.285632
0.160422
0.375584
0.152362
0.257222
0.425273
0.0665731
0.37611
0.13906
0.266331
0.276234
0.183366
0.263466
0.594993
0.103325
0.227375
0.0739161
0.255171
0.0643193
0.454408
0.215065
0.185552
0.100651
0.258475
0.103106
0.450889
0.189931
0.412517
0.0563001
0.594825
0.0761697
0.359705
0.128334
0.592827
0.103622
0.410325
0.258782
0.390579
0.0992852
0.279916
0.0849841
0.350123
0.0913295
0.356208
0.241869
0.30642
0.143673
0.24274
0.078011
0.470801
0.114924
0.215015
0.358198
0.1935
0.243332
0.207202
0.171155
0.226376
0.254037
0.414496
0.0711189
0.26463
0.331105
0.251983
0.574209
0.266929
0.46382
0.165991
0.14839
0.398161
0.0642546
0.573941
0.0982706
0.221084
0.0822034
0.329407
0.190137
0.196963
0.141136
0.320534
0.167131
0.343496
0.36084
0.156589
0.238932
0.140168
0.148979
0.221334
0.10812
0.412029
0.18261
0.1664
0.129563
0.407714
0.0710691
0.162732
0.135476
0.202629
0.226823
0.179398
0.141903
0.45935
0.357513
0.218831
0.0867141
0.222517
0.214351
0.443232
0.215902
0.261199
0.0768934
0.57348
0.0716897
0.356549
0.186636
0.192553
0.0836249
0.30433
0.314215
0.174908
0.22134
0.28058
0.0808334
0.191325
0.0761804
0.256563
0.335743
0.289872
0.321014
0.2305
0.3061
0.209275
0.172057
0.217719
0.0978506
0.572529
0.372093
0.321227
0.0888013
0.318733
0.320687
0.264659
0.131286
0.201786
0.0820731
0.319431
0.0888295
0.287065
0.181854
0.156522
0.204507
0.282184
0.138322
0.290158
0.111419
0.316139
0.444232
0.464164
0.263623
0.242568
0.112203
0.221274
0.422944
0.228999
0.147571
0.218743
0.11297
0.257612
0.148958
0.416693
0.112418
0.28442
0.103992
0.258115
0.409666
0.314982
0.155746
0.218938
0.087054
0.266792
0.0869845
0.224737
0.0756018
0.408806
0.288865
0.192621
0.0739932
0.415914
0.299437
0.355948
0.3071
0.340155
0.0852908
0.286364
0.278454
0.194628
0.284372
0.156756
0.176853
0.252293
0.196064
0.232572
0.194941
0.249804
0.10252
0.344349
0.095111
0.187082
0.190453
0.279234
0.133285
0.245123
0.119181
0.212437
0.1405
0.234012
0.32068
0.19878
0.0946567
0.218994
0.154831
0.308167
0.0682998
0.339235
0.107046
0.335644
0.262746
0.250193
0.084622
0.259787
0.841213
0.140405
0.842515
0.121511
0.0705709
0.134191
0.0915264
0.128049
0.762551
0.155744
0.114393
0.131633
0.989949
0.12601
0.0395644
0.126777
0.255912
0.831865
0.0570125
0.12609
0.802558
0.156639
0.0657469
0.254457
0.111066
0.135233
0.0357978
0.109813
0.830969
0.12295
0.752608
0.1187
0.247832
0.107824
0.0517198
0.234883
0.11908
0.238307
0.284257
0.0968149
0.0944282
0.830111
0.218788
0.135458
0.0640285
0.139154
0.0855705
0.22642
0.0922295
0.213183
0.749129
0.165063
0.124036
0.213263
0.0799208
0.209371
0.581955
0.126222
0.0964385
0.223756
0.111023
0.1984
0.103414
0.216136
0.828216
0.118169
0.0996653
0.580734
0.234942
0.199678
0.148865
0.185668
0.125015
0.222495
0.594528
0.130134
0.201422
0.124394
0.391775
0.210061
0.154675
0.235516
0.0864035
0.20507
0.0915377
0.193048
0.142467
0.174134
0.0727535
0.201971
0.369297
0.14546
0.444688
0.140016
0.0913127
0.732037
0.152149
0.167706
0.577342
0.150548
0.147271
0.198491
0.776868
0.12105
0.0802305
0.183448
0.22686
0.11155
0.0906909
0.125972
0.28016
0.1363
0.777847
0.166287
0.0698948
0.136622
0.119552
0.132216
0.207154
0.148259
0.0771161
0.22385
0.105966
0.72218
0.0822845
0.157944
0.0863012
0.158147
0.101248
0.148145
0.0688863
0.211597
0.126697
0.338562
0.558703
0.108563
0.114807
0.194662
0.551248
0.139786
0.152741
0.212373
0.192741
0.160814
0.0550506
0.120691
0.0813234
0.151616
0.192779
0.132183
0.159837
0.14551
0.223943
0.188854
0.413132
0.106945
0.44673
0.0961939
0.147497
0.184226
0.176916
0.178564
0.130785
0.721993
0.0701198
0.189596
0.0987685
0.144093
0.0814846
0.183656
0.101872
0.145835
0.282175
0.167214
0.059509
0.144195
0.124452
0.273863
0.142434
0.138343
0.720026
0.149796
0.463637
0.189848
0.0850254
0.166441
0.474014
0.152074
0.131073
0.152905
0.24031
0.167801
0.066669
0.187067
0.0439529
0.193912
0.138152
0.157533
0.0870024
0.148889
0.120816
0.204532
0.122703
0.265393
0.1935
0.187886
0.0777813
0.120883
0.106962
0.149865
0.632202
0.135542
0.175869
0.236649
0.0638424
0.117383
0.0750628
0.143229
0.544061
0.170421
0.114767
0.437153
0.405197
0.182589
0.194823
0.478554
0.0982927
0.143806
0.0700941
0.131008
0.121737
0.15439
0.431918
0.143677
0.189116
0.211004
0.421145
0.180489
0.311786
0.184244
0.0749152
0.125147
0.11213
0.199872
0.137904
0.148232
0.0937525
0.131842
0.407118
0.148448
0.0803284
0.177252
0.401074
0.143594
0.114342
0.126453
0.124618
0.161876
0.0933144
0.175893
0.104185
0.468207
0.0830463
0.144076
0.0881909
0.137249
0.134856
0.144054
0.401049
0.121951
0.293128
0.133662
0.14122
0.144962
0.161029
0.143772
0.107022
0.151815
0.466438
0.116787
0.327871
0.118977
0.278068
0.223044
0.104265
0.145939
0.354852
0.136184
0.620276
0.137044
0.126739
0.229968
0.0659985
0.123395
0.127653
0.177188
0.123502
0.479911
0.395741
0.125117
0.111616
0.160989
0.145882
0.237751
0.0927454
0.217565
0.0639007
0.164353
0.10348
0.214726
0.0805562
0.153955
0.0940576
0.153366
0.202951
0.171901
0.054219
0.170559
0.116622
0.180632
0.0914323
0.149839
0.141175
0.150346
0.160316
0.172662
0.147792
0.191931
0.133148
0.122912
0.147414
0.188492
0.370413
0.129234
0.101593
0.195057
0.476598
0.131486
0.199378
0.211071
0.444134
0.159514
0.112815
0.160482
0.225444
0.212677
0.454575
0.134385
0.0826699
0.15174
0.0830496
0.144541
0.0951844
0.160042
0.28402
0.185329
0.127309
0.150305
0.11543
0.186218
0.452679
0.102182
0.471514
0.137289
0.1716
0.169784
0.100858
0.190374
0.139629
0.167496
0.109786
0.171738
0.124136
0.197527
0.210051
0.16997
0.139133
0.188615
0.0683668
0.138316
0.102565
0.2371
0.0717491
0.142574
0.0983252
0.173411
0.243934
0.195022
0.0876731
0.210971
0.119437
0.161212
0.084307
0.164045
0.0707838
0.133872
0.146614
0.21671
0.373965
0.193851
0.166203
0.162671
0.162679
0.19395
0.0903745
0.188325
0.351784
0.144343
0.259345
0.116364
0.248868
0.146093
0.179251
0.217156
0.169516
0.165328
0.0583803
0.163969
0.15183
0.188308
0.404916
0.139189
0.220335
0.153349
0.0808196
0.14437
0.114661
0.179433
0.39622
0.17728
0.104687
0.208723
0.111815
0.172165
0.382984
0.190803
0.121342
0.176071
0.164166
0.287492
0.439102
0.134101
0.148803
0.135337
0.239165
0.160571
0.139454
0.162506
0.130426
0.27825
0.331332
0.160765
0.112181
0.176887
0.130274
0.20514
0.0761761
0.150261
0.187401
0.24937
0.0826267
0.165455
0.124789
0.269618
0.164181
0.180642
0.0772177
0.16974
0.16097
0.233415
0.136787
0.234819
0.100123
0.227106
0.193976
0.247555
0.145866
0.15921
0.148091
0.241648
0.0842648
0.158412
0.128477
0.173821
0.146688
0.204538
0.087465
0.24386
0.134052
0.20495
0.169136
0.212998
0.300279
0.174406
0.0581791
0.13454
0.106926
0.273907
0.148382
0.174809
0.218941
0.232161
0.258923
0.24237
0.12775
0.192024
0.269847
0.158826
0.242144
0.168592
0.19315
0.191582
0.0967609
0.18885
0.347352
0.147192
0.180432
0.224549
0.0797509
0.171728
0.271968
0.149876
0.104226
0.181859
0.175152
0.247585
0.104777
0.185534
0.0855055
0.169922
0.189543
0.17936
0.156086
0.22489
0.224269
0.168439
0.050502
0.154989
0.0888459
0.192678
0.17402
0.173611
0.125001
0.164016
0.21546
0.215807
0.271681
0.209634
0.323325
0.158907
0.19207
0.204686
0.173745
0.23076
0.101083
0.0913075
0.990629
0.0794544
0.0908218
0.118577
0.064762
0.107008
0.0908645
0.115245
0.288981
0.130874
0.0626329
0.125906
0.0554683
0.12232
0.0847676
0.112623
0.0734035
0.116971
0.0707252
0.118188
0.746799
0.0814289
0.445272
0.0879596
0.0449922
0.105146
0.0979082
0.0972613
0.830518
0.0894781
0.0908033
0.119918
0.0998725
0.114199
0.0470358
0.116582
0.230423
0.109118
0.0478988
0.111318
0.0668165
0.111177
0.829192
0.123795
0.275584
0.110761
0.598009
0.0833605
0.104016
0.116205
0.0779415
0.141372
0.0649006
0.142943
0.420586
0.0923434
0.0993962
0.100957
0.0764415
0.113199
0.0919811
0.0955332
0.146906
0.147821
0.113378
0.1852
0.410951
0.0979542
0.131647
0.159668
0.741366
0.0872725
0.780598
0.121243
0.081791
0.107292
0.120074
0.152535
0.417567
0.105033
0.568527
0.123023
0.128241
0.17875
0.046586
0.108773
0.0944795
0.110805
0.0878277
0.186787
0.0718025
0.114261
0.134324
0.159965
0.162478
0.123514
0.0963085
0.136061
0.085486
0.159948
0.0524616
0.102165
0.433628
0.0948841
0.0940927
0.130934
0.159004
0.108704
0.0871668
0.137446
0.0826297
0.125033
0.133005
0.193326
0.0716308
0.104502
0.211503
0.120634
0.0696006
0.112835
0.0936322
0.119612
0.731459
0.0975622
0.103713
0.141356
0.405132
0.108361
0.334606
0.110378
0.0964141
0.122431
0.143645
0.162128
0.105696
0.118016
0.0776585
0.122565
0.067971
0.10237
0.111602
0.169415
0.11189
0.138949
0.0828038
0.154582
0.557132
0.101867
0.0824375
0.136094
0.110254
0.128966
0.229883
0.102811
0.139649
0.159948
0.721503
0.0914703
0.126675
0.159414
0.382602
0.102454
0.118067
0.143663
0.105326
0.165403
0.117591
0.165931
0.0882507
0.158582
0.179946
0.103606
0.101555
0.144936
0.44067
0.103377
0.459135
0.108737
0.10041
0.430847
0.143168
0.177811
0.0956559
0.117322
0.166185
0.139279
0.0828789
0.129582
0.108688
0.181319
0.474471
0.109828
0.434373
0.102666
0.115347
0.172107
0.124318
0.176232
0.0786865
0.145617
0.119558
0.125382
0.150111
0.214509
0.252812
0.160938
0.476872
0.104808
0.301592
0.112597
0.428633
0.107048
0.157723
0.115724
0.0895696
0.161739
0.0831794
0.153161
0.106243
0.431382
0.304668
0.18274
0.416826
0.0990007
0.112019
0.14137
0.0803159
0.150242
0.0997165
0.172252
0.429474
0.101964
0.163085
0.153927
0.0700199
0.14283
0.0621271
0.134034
0.468866
0.144068
0.108286
0.192106
0.466583
0.102091
0.0716164
0.134028
0.62634
0.104876
0.0973248
0.161202
0.0716112
0.137484
0.113661
0.126507
0.0938019
0.129363
0.0577209
0.145519
0.110151
0.107357
0.0953726
0.130334
0.0822468
0.165381
0.0708186
0.137606
1.13476
0.0819456
1.13462
0.146065
1.13381
0.150429
1.13187
0.214594
1.12929
0.157848
0.181197
1.13275
0.160016
0.105746
1.12898
1.04005
0.679675
0.0993503
1.03974
0.239221
0.669649
0.0995614
0.233329
0.0911091
1.03951
0.660182
0.23243
0.164205
0.202269
0.0784636
1.03936
0.521048
0.993738
0.471801
0.331528
0.0736638
0.471202
0.0862258
0.659691
0.167627
0.656064
0.0910455
0.993483
0.140722
0.992541
0.124745
0.468269
0.143181
0.653783
0.153847
0.650931
0.164805
0.461364
0.114374
0.992035
0.14468
0.648539
0.152548
0.455736
0.346761
0.375531
0.126551
0.947625
0.940884
0.262219
0.948377
0.497733
0.184214
0.184746
0.108085
0.327654
0.220627
0.313991
0.219441
0.348679
0.100109
0.345907
0.102327
0.496287
0.467757
0.270955
0.121362
0.307827
0.106587
0.940428
0.139851
0.318931
0.146803
0.245885
0.0908181
0.647945
0.206143
0.287165
0.238394
0.249977
0.183847
0.93808
0.165407
0.217863
0.14151
0.337825
0.110581
0.937568
0.125586
0.46472
0.255623
0.279571
0.18684
0.642724
0.932443
0.237755
0.577946
0.851631
0.179761
0.261451
0.137312
0.221388
0.109652
0.264832
0.160515
0.458247
0.10114
0.576912
0.105712
0.64177
0.617019
0.308701
0.211327
0.608643
0.169308
0.239402
0.147716
0.850147
0.144622
0.453394
0.11355
0.575442
0.197774
0.846564
0.557077
0.260451
0.140024
0.298783
0.122214
0.606996
0.134488
0.554452
0.396354
0.544438
0.165436
0.44593
0.227208
0.425331
0.109707
0.845949
0.201343
0.84213
0.115434
0.841407
0.167996
0.549263
0.505692
0.331379
0.202025
0.264131
0.170892
0.83905
0.115046
0.393096
0.183305
0.497532
0.164077
0.539424
0.220876
0.368323
0.763103
0.52695
0.297991
0.507228
0.207947
0.485116
0.233044
0.400601
0.146899
0.360363
0.148192
0.243362
0.119779
0.762118
0.277631
0.452687
0.124991
0.325342
0.31173
0.323949
0.125395
0.290398
0.192129
0.440843
0.224588
0.284833
0.105848
0.525523
0.179568
0.75878
0.182849
0.49918
0.277385
0.40069
0.268614
0.501004
0.166674
0.24525
0.136474
0.757306
0.530303
0.658232
0.14912
0.496561
0.189041
0.342114
0.292461
0.340037
0.194585
0.489123
0.503478
0.278091
0.41299
0.373248
0.185402
0.400139
0.180474
0.358618
0.143634
0.655944
0.192602
0.493902
0.213228
0.33149
0.112034
0.271892
0.410739
0.371298
0.158313
0.652855
0.214445
0.474978
0.20344
0.38178
0.27072
0.329598
0.138296
0.405445
0.283082
0.352939
0.186937
0.354778
0.448089
0.573161
0.134575
0.444006
0.358662
0.521898
0.173217
0.344655
0.246583
0.451704
0.391666
0.434574
0.294053
0.405625
0.251647
0.415237
0.174752
0.379708
0.297218
0.356583
0.270466
0.396397
