# vtk DataFile Version 3.0
Tree
ASCII
DATASET POLYDATA
POINTS 1582 float
162774 225274 273.8
162774 225274 10273.8
141774 225774 23773.8
140774 213262 31773.8
140224 217915 31273.8
133774 208070 52773.8
135709 211023 46323.8
148774 204006 61773.8
137063 213091 41809
112774 201930 45773.8
133221 208181 51444.2
122774 198102 66773.8
126744 201932 60948.6
134774 197986 76773.8
147206 204188 58912.2
162774 191774 71129.8
123965 199251 65026.2
105774 191774 64125.8
154367 198477 64532.2
150774 195774 82893.8
111231 194017 64395.8
104774 186102 78773.8
161803 191764 69858.6
172050 178774 74773.8
167336 184749 72513
171974 182774 93773.8
107173 191445 64235.8
92773.8 179974 63773.8
132365 199169 72026.2
120774 192006 91773.8
150204 196535 80019.4
139774 195998 97773.8
170636 180567 74095.4
175222 163774 67773.8
173704 167468 67800.6
173226 157774 55773.8
97093.8 183415 63912.6
89573.8 176774 79773.8
170353 182119 80529.8
179942 169774 88773.8
176596 172975 84908.6
180018 161774 81773.8
178938 170734 87614.2
179886 172774 106774
94069.8 181006 63815.4
81677.8 164774 67773.8
123483 194296 89241.8
117774 194550 111774
142271 196170 96852.2
136774 195998 114774
121587 192693 91014.2
103774 189774 99653.8
179285 162418 81780.2
181386 144774 75773.8
173183 158571 57901
172002 144774 47773.8
180099 170414 101328
183774 161018 115774
90092.2 176763 76471.4
78773.8 163890 86773.8
85791 171871 80386.2
82773.8 174774 97573.8
118092 194352 103872
105774 193774 111662
171487 182577 89800.6
160774 191890 104774
180822 146220 75659.8
181774 129774 68501.8
179798 161967 81775.8
183998 147774 89773.8
140958 196072 108327
149774 195998 123774
117211 194935 110476
112774 197910 126774
85046.2 165488 67347
79545.8 148774 70773.8
180989 133514 68652.6
178002 124774 55773.8
181217 145208 75739.4
183998 137774 85773.8
182661 160876 112551
183998 149774 120774
80949.8 165180 84118.2
76773.8 153154 83773.8
79426.6 164277 85977
76773.8 160774 101890
183383 154881 116991
183998 143774 111774
138488 196308 114006
133774 197942 132774
107140 193123 109714
91773.8 188006 112774
135188 197451 127143
145774 195986 140774
179949 172066 105140
173234 183774 112774
179114 124228 58019
178018 115774 49773.8
94577 187955 111948
82161.8 177774 112774
82039 152804 68454.6
83601.8 135774 62773.8
183783 150021 120710
183998 138774 129774
114252 197399 124613
114774 199994 142774
183166 156679 115659
183998 157774 137774
178335 124610 56447.4
182774 128774 39885.8
149073 195457 120163
161774 191994 127774
78681 156732 85461.8
77569.8 141774 94773.8
183247 139361 84744.6
183998 134774 97773.8
183916 143048 126329
183866 130774 121774
183511 139604 129413
180774 131578 137774
114450 198385 131514
102774 194774 139946
80293.8 149983 70077.8
79549.8 137774 80773.8
78350.6 148346 93009.8
79733.8 142774 110774
183633 140637 128488
183774 143774 141890
140410 196726 137013
139974 196774 155774
90852.2 184901 112195
86773.8 177774 127322
83454.2 138972 65147.4
85561.8 125774 68773.8
183440 160975 114807
179918 172774 122774
113871 198560 140653
109138 193774 155774
181531 135197 136283
177774 132774 152806
110013 197013 134718
98301.8 193774 128774
183489 144327 139655
182014 153774 151774
157503 193175 127070
163018 191774 141774
84093 136261 63194.2
87733.8 125774 55773.8
160683 191680 127079
171978 184774 125774
80318.6 138184 80167
81657.8 128774 87773.8
110937 195593 150028
100774 184774 151962
79239.4 146124 105396
79661.8 152774 116774
114503 199564 142137
126774 200002 151774
85552.2 128077 66954.6
89557.8 116774 62773.8
137817 197446 152290
131774 199230 164774
88639 178205 125408
88773.8 171170 137774
183202 132268 123424
179026 117774 124774
80093.4 152518 115242
83557.8 163774 127774
180441 132060 137314
175202 119774 140774
79427.4 144851 107440
83445.8 132774 106774
139126 196985 155397
141774 195834 165774
79641.8 143397 109773
83773.8 141774 121898
180279 122122 124369
180010 115774 114774
104907 194897 137282
95773.8 188774 136974
109677 194319 154050
115774 192402 167774
176773 123460 139736
170774 121598 152774
103823 188019 151382
103706 178774 162774
175673 120879 140463
172094 110774 132774
87697.8 126610 55628.2
91765.8 116774 46773.8
145044 195795 140717
153970 192774 149774
81872.6 130195 86985
85773.8 120774 96809.8
83172.2 160175 125650
87485.8 159774 136774
172114 122950 150933
168774 127666 164774
103759 183027 157533
97773.8 172774 156802
178416 134894 150029
175774 137578 161774
83901.4 137074 63780.2
87501.8 139774 48773.8
140769 195997 164703
141966 194774 176774
181959 151783 150489
178774 157774 165970
88356.2 120165 64028.2
93529.8 107774 72773.8
183173 159944 130697
182002 166774 137774
83667 125861 91504.2
90773.8 113566 86773.8
81873 142521 116321
87773.8 129578 119774
141472 195883 165453
149774 191026 168774
91065.4 113785 67053.4
94773.8 105574 63773.8
112835 191599 162853
113510 180774 174774
180091 117678 117652
174042 102774 115774
93121.4 109133 64064.2
94361.8 105774 55773.8
168589 186846 126165
175258 181774 137774
171390 122220 151927
165774 111774 148434
86013.8 121307 96212.2
91549.8 114774 102774
89723 171630 136617
92317.8 164774 147774
167318 113894 148165
165974 106774 139774
83413.4 133120 106934
86773.8 123658 106774
139719 196837 155661
149050 193774 157774
172590 111488 133372
169774 101774 126122
86128.6 134275 119711
90773.8 130774 127958
142388 194362 172829
147974 188774 178774
171112 124365 155086
161134 117774 162774
89380.2 131824 125484
92773.8 123774 125162
173777 103316 115479
169234 93773.8 113774
168332 126430 162923
159774 127090 175774
179729 155977 161326
173998 147774 173774
103739 178923 161165
103774 166774 167382
165737 106803 140108
163974 100774 133774
168641 127295 164219
169206 136774 173774
178593 157557 165394
173998 162774 178774
103439 168934 165058
101450 158774 162774
142014 194187 176162
140774 192082 186774
176310 158853 171989
173774 153774 179050
90180.6 116183 99560.2
98773.8 104774 99973.8
182287 165210 137403
181782 168774 148774
175616 160029 174024
174774 169318 173774
113702 181132 173906
114774 172774 181894
175671 107625 116131
175998 99773.8 103774
95877.8 108487 98681
99569.8 102774 91773.8
94771 105805 63641.8
100774 94257.8 61773.8
170294 95930.2 113254
168046 90773.8 106774
97531.4 105511 93623.8
96349.8 104774 83773.8
172464 183969 134971
171974 184774 146774
91683.8 114905 102418
98277.8 109774 113774
148320 193717 157769
159774 189194 160774
173759 154025 177741
168774 145774 183322
90355.8 131089 127215
97773.8 124774 136970
169806 94938.2 113493
164774 94217.8 121774
173889 162513 178511
169178 167774 188774
104102 166928 166906
107530 158774 173774
160576 127700 175407
155774 128998 183774
91726.2 125751 124289
93773.8 117774 118126
156338 190551 159872
163942 189774 151774
168846 146174 181943
163334 137774 184774
106499 159995 171667
106774 151774 171970
172781 183512 143623
176518 177774 153774
168795 145894 182908
167774 153774 191982
114903 173100 181623
116154 166774 187774
175271 100157 105208
173774 92169.8 94773.8
98958.2 103595 92329
107774 94289.8 92773.8
163642 101215 134401
160774 95457.8 128774
168055 91083 107263
163774 83037.8 97773.8
97618.2 110039 110988
106282 101774 115774
149232 191389 167991
157326 186774 169774
169172 167512 187170
163774 172850 194774
100107 96327.8 62838.2
107586 86773.8 65773.8
165958 93797.8 118213
157774 89005.8 121774
104424 97825.8 92604.6
108774 91581.8 80773.8
95548.2 126668 134043
97705.8 132774 144774
165459 87583.8 104353
157774 81605.8 104774
102297 105576 113572
107590 96773.8 105774
107220 159140 173142
112774 154774 183970
170587 166012 184572
161774 178542 185774
100893 106915 112797
105774 107998 126774
175397 179495 150729
170774 182046 160774
92855.8 124241 125212
97773.8 118774 129198
107322 154469 172792
111534 145774 178774
103876 106574 119085
109998 101774 122774
174858 95469.8 97490.2
177774 95773.8 88089.8
94481.4 105829 58255.4
98317.8 97773.8 52773.8
173960 92833.4 94872.2
171774 86773.8 87133.8
106645 88991 66264.6
112774 83773.8 70881.8
175982 178092 153535
176774 173774 163166
110632 85317.4 68181.4
116302 78773.8 65773.8
148090 189003 177711
154774 183206 181774
164263 171811 192000
153774 178774 193970
97776.2 132615 144647
99773.8 137774 153926
163608 83942.2 97893.4
160774 79773.8 88801.8
97727 132726 144736
94773.8 143774 147294
106025 107048 125063
112310 104774 133774
110709 146861 177159
113762 136774 178774
114940 79980.6 65443.8
117506 74773.8 58773.8
112397 156171 183105
117774 154774 193258
97425.8 119690 129070
104774 114774 135974
111286 146100 178289
116774 142774 187890
174441 168031 173421
170774 178042 170774
95998.6 142199 148095
95773.8 150774 153078
172100 87313 87549.4
170442 81773.8 79773.8
110424 105456 131161
119130 97773.8 129774
172658 88969 89746.2
178038 88773.8 76773.8
112846 139800 178289
112342 132774 171774
115893 79135.8 65675
124354 75773.8 68773.8
116882 154311 191353
121774 148774 199234
100031 136521 152659
105462 138774 162774
171629 83572.6 81403.8
174774 80773.8 71977.8
116408 142158 186185
121738 136774 192774
108416 102858 120628
117502 94773.8 118774
113487 137682 178629
120774 131598 184774
170798 82313.4 80262.6
160774 74529.8 75773.8
95141.4 143301 147534
89589.8 148774 139774
173830 81613.4 74805.4
169774 73773.8 69973.8
164999 174609 184377
162774 181774 178802
111744 104979 132990
121774 103774 143970
169889 75330.6 71122.6
162774 69773.8 68861.8
113191 134253 174054
117146 125774 171774
118204 98552.2 129131
125774 91773.8 125894
116807 105132 139781
117106 109774 147774
106938 152583 172217
102314 148774 163774
123188 93726.2 125890
126230 88773.8 117774
121368 149009 197602
128310 139774 202774
96216.6 128452 137225
92349.8 137774 138774
119887 104290 142378
127774 98333.8 138774
83630.6 142315 121189
87501.8 143774 130774
116166 109269 145536
111138 117774 151774
121208 103929 143492
127774 105774 151990
125317 90259.4 120209
134774 85773.8 118898
126328 89090.2 118116
130774 84773.8 109958
112646 115222 149903
105706 120774 146774
[...]
CELL_DATA 1581
SCALARS radius float
LOOKUP_TABLE default
2.122e-314
100
100
1.1559
0.0787436
1.15536
0.941601
0.885943
1.15235
0.210545
0.197076
0.938087
0.817821
0.652488
0.884988
0.102783
0.812762
0.21607
0.563739
0.800629
0.807649
0.170189
0.795844
0.171164
0.307057
0.780306
0.062263
0.807526
0.649249
0.118397
0.0762182
0.562332
0.0734988
0.305647
0.255754
0.212407
0.694013
0.576336
0.266883
0.769757
0.722298
0.423044
0.721592
0.103345
0.693271
0.102289
0.211027
0.640404
0.198786
0.551854
0.0643435
0.209014
0.228461
0.399554
0.144492
0.211122
0.23643
0.711361
0.567178
0.198418
0.56016
0.188422
0.593959
0.367351
0.165855
0.243551
0.221359
0.373536
0.0456648
0.227852
0.470379
0.392303
0.0668028
0.593677
0.0816658
0.690268
0.100708
0.35118
0.0557236
0.220175
0.707709
0.135938
0.27911
0.536038
0.0649133
0.277935
0.118963
0.689022
0.115095
0.468071
0.145
0.359661
0.439954
0.206607
0.0732801
0.234059
0.261526
0.278527
0.0887303
0.355055
0.615481
0.446567
0.68828
0.101799
0.0800199
0.589392
0.690202
0.294953
0.0772209
0.259262
0.38424
0.13241
0.533638
0.127233
0.0960204
0.187828
0.585951
0.499839
0.465605
0.11058
0.571809
0.261017
0.0691001
0.615191
0.194464
0.524887
0.467675
0.462435
0.419436
0.224848
0.187341
0.336742
0.424564
0.224825
0.0669699
0.130288
0.170308
0.566728
0.441231
0.246819
0.128136
0.250288
0.177667
0.453522
0.367878
0.19077
0.0635233
0.17021
0.362873
0.126089
0.0645574
0.613842
0.345923
0.518196
0.501153
0.262025
0.0637551
0.167277
0.420808
0.126272
0.39139
0.23082
0.200101
0.286182
0.491099
0.126582
0.229474
0.172566
0.0644457
0.440773
0.486229
0.221809
0.3333
0.284096
0.481785
0.146175
0.487318
0.139493
0.22793
0.131679
0.341
0.120325
0.240057
0.405488
0.100157
0.515504
0.078704
0.237203
0.0814849
0.163742
0.146461
0.166366
0.0736578
0.611562
0.132525
0.213678
0.291692
0.347194
0.50438
0.191573
0.216558
0.148849
0.173109
0.183477
0.220965
0.297148
0.0896444
0.446039
0.13913
0.410799
0.239145
0.157919
0.12996
0.609599
0.47618
0.156837
0.0687631
0.218723
0.398122
0.160329
0.203107
0.310162
0.483474
0.139542
0.368332
0.235923
0.350171
0.169204
0.0817563
0.289536
0.0642485
0.606963
0.103366
0.221585
0.108942
0.2843
0.192593
0.129981
0.0562317
0.283359
0.0887644
0.232985
0.468278
0.174206
0.190402
0.268398
0.306542
0.235417
0.293868
0.425998
0.070056
0.386541
0.178189
0.284993
0.152036
0.436927
0.0809109
0.503685
0.0792346
0.282234
0.0816791
0.172275
0.0696283
0.436337
0.134537
0.500465
0.0961031
0.181863
0.361451
0.323692
0.322024
0.573968
0.0906786
0.234718
0.342055
0.193113
0.0837456
0.262817
0.387306
0.380093
0.311352
0.147537
0.055167
0.367919
0.265099
0.33948
0.267343
0.2229
0.32475
0.190017
0.113189
0.572497
0.0779571
0.281379
0.311262
0.155487
0.0760153
0.422002
0.0893401
0.261673
0.321098
0.19051
0.0662996
0.500077
0.183168
0.242829
0.265154
0.188856
0.250766
0.18671
0.269285
0.21987
0.300557
0.460898
0.309985
0.164631
0.238028
0.182126
0.0814098
0.260187
0.0921475
0.374156
0.252405
0.144662
0.111876
0.258004
0.330006
0.147132
0.0930441
0.57041
0.107474
0.187723
0.109903
0.236802
0.350329
0.189521
0.127893
0.233798
0.12955
0.240474
0.117054
0.418979
0.278974
0.242312
0.117939
0.143211
0.0749149
0.298997
0.244444
0.26448
0.16604
0.565682
0.238086
0.253502
0.0709944
0.263447
0.162293
0.45409
0.555078
0.202412
0.153244
0.365383
0.163759
0.189362
0.348931
0.184663
0.11495
0.321835
0.0933928
0.233196
0.136548
0.313424
0.233256
0.187989
0.149713
0.21489
0.353324
0.269358
0.101797
0.274381
0.0450953
0.353079
0.089884
0.554292
0.240967
0.412841
0.254776
0.242448
0.28481
0.153648
0.167663
0.21984
0.0776023
0.238253
0.107776
0.181204
0.294084
0.264871
0.0905665
0.329108
0.461623
0.415882
0.331378
0.182658
0.184699
0.400131
0.0976007
0.249909
0.119232
0.277667
0.187362
0.234926
0.221095
0.291771
0.18825
0.189946
0.106705
0.192001
0.0949519
0.175924
0.105414
0.2128
0.0911707
0.291133
0.156549
0.275901
0.162102
0.242388
0.0788101
0.460856
0.170413
0.252262
0.362814
0.253571
0.0896262
0.410758
0.388866
0.324983
0.0830754
0.154686
0.391232
0.211203
0.130036
0.267815
0.399272
0.214708
0.360095
0.22964
0.080975
0.149284
0.111443
0.320554
0.0810893
0.358719
0.356081
0.245155
0.077985
0.35483
0.238435
0.254524
0.263248
0.162002
0.0871986
0.234482
0.282289
0.254253
0.316232
0.235438
0.19359
0.195559
0.0923416
0.205147
0.120201
0.256349
0.284978
0.290893
0.10061
0.3128
0.208235
0.213225
0.0833392
0.225922
0.230396
0.235634
0.202877
0.200712
0.105901
0.280018
0.131246
0.251891
0.216041
0.228131
0.0975026
1.15566
1.15469
0.139023
0.168752
0.165434
0.0658886
0.133904
0.940978
0.118319
0.0735733
0.107955
0.0447415
0.196304
0.937803
0.0908131
0.112122
0.150311
0.0608445
0.186934
0.810161
0.172569
0.884665
0.0912387
0.119352
0.15728
0.158502
0.104983
0.0842012
0.140931
0.562799
0.0963828
0.0520964
0.215056
0.798474
0.150129
0.0480879
0.169889
0.12626
0.125343
0.201639
0.103071
0.0718731
0.165488
0.0997754
0.648462
0.0676046
0.110539
0.0695362
0.144982
0.807078
0.0956643
0.137395
0.132681
0.186455
0.119723
0.101163
0.175947
0.163527
0.151572
0.29743
0.130874
0.57516
0.105357
0.0693196
0.161716
0.109538
0.160475
0.76775
0.152663
0.231627
0.162638
0.120462
0.13538
0.0915242
0.692082
0.137395
0.176789
0.692615
0.098134
0.0440551
0.162455
0.0932006
0.639745
0.0665676
0.210205
0.128227
0.192917
0.0613742
0.196441
0.0728339
0.13804
0.547871
0.153438
0.103821
0.638222
0.104279
0.691292
0.560321
0.103878
0.0591262
0.109639
0.149525
0.182388
0.0676158
0.190107
0.116701
0.126474
0.182328
0.11496
0.719962
0.136431
0.709377
0.144283
0.108224
0.22653
0.114254
0.161205
0.126616
0.169163
0.155817
0.687612
0.123541
0.107111
0.353919
0.198214
0.0911226
0.174402
0.146035
0.205788
0.454646
0.194141
0.11645
0.112517
0.234482
0.115843
0.110881
0.141381
0.340548
0.15626
0.0514672
0.142806
0.685561
0.130654
0.0745259
0.124019
0.24545
0.154359
0.0856905
0.222367
0.140657
0.155942
0.0887244
0.187757
0.0862854
0.167056
0.0690305
0.195383
0.389411
0.109849
0.0776824
0.190717
0.0623432
0.163395
0.146853
0.16437
0.0727051
0.118769
0.112059
0.176836
0.0711859
0.141051
0.232985
0.128873
0.110954
0.182644
0.0937107
0.149908
0.168085
0.188517
0.113882
0.264065
0.0950572
0.141263
0.493886
0.163977
0.102288
0.199001
0.164487
0.142663
0.0554869
0.205265
0.103873
0.225889
0.112015
0.257167
0.241727
0.115842
0.164343
0.192086
0.104312
0.195861
0.117391
0.320377
0.196677
0.173412
0.0866727
0.146451
0.115415
0.249172
0.0824019
0.157283
0.115383
0.15437
0.325547
0.154432
0.0856911
0.149016
0.0593325
0.121548
0.210593
0.116301
0.0668281
0.120041
0.111634
0.131846
0.431791
0.172457
0.516761
0.104862
0.237839
0.116527
0.416503
0.115401
0.0784569
0.195997
0.61408
0.107979
0.119676
0.173566
0.118023
0.148104
0.132243
0.141221
0.078879
0.134286
0.0622195
0.175086
0.56519
0.113915
0.142895
0.193439
0.199549
0.157344
0.447243
0.156338
0.336834
0.112808
0.108752
0.612702
0.0804013
0.13814
0.0889627
0.147404
0.0668874
0.16915
0.148776
0.231931
0.0802195
0.129604
0.228842
0.225417
0.197758
0.165872
0.124857
0.161728
0.156366
0.160348
0.513429
0.118108
0.100689
0.147504
0.0904302
0.196947
0.442979
0.12196
0.120406
0.21333
0.0701776
0.133302
0.223616
0.124929
0.345129
0.122271
0.0855243
0.147293
0.406607
0.128078
0.101133
0.187623
0.607202
0.138585
0.0856781
0.148374
0.0681871
0.133889
0.0975954
0.120094
0.124546
0.218316
0.176597
0.196088
0.0829352
0.156337
0.144239
0.188592
0.109833
0.18575
0.605942
0.10403
0.140876
0.161789
0.264833
0.157501
0.110103
0.140721
0.265621
0.22305
0.273525
0.13896
0.127685
0.147438
0.144379
0.156748
0.100271
0.184006
0.164537
0.185909
0.124484
0.148875
0.43292
0.12464
0.0901442
0.151865
0.37601
0.120525
0.127031
0.17206
0.0883467
0.218331
0.16044
0.204219
0.0894979
0.201106
0.0746499
0.150888
0.121977
0.188541
0.206849
0.130536
0.0899084
0.213125
0.098005
0.165901
0.0415649
0.111289
0.112977
0.18844
0.1374
0.217838
0.124659
0.177607
0.571234
0.107393
0.198799
0.137628
0.168838
0.179837
0.422823
0.119721
0.161088
0.183284
0.0505659
0.189315
0.0801742
0.159377
0.0852876
0.176785
0.118896
0.199999
0.0582959
0.144016
0.0635519
0.140453
0.0929928
0.174929
0.072511
0.150042
0.100981
0.150845
0.245915
0.144956
0.113322
0.174138
0.166294
0.213414
0.0533907
0.145066
0.155891
0.207941
0.563909
0.119263
0.0616548
0.182343
0.326651
0.201177
0.147523
0.240806
0.151102
0.167414
0.11765
0.164289
0.0808159
0.18449
0.177555
0.220312
0.163007
0.209193
0.24846
0.143358
0.111837
0.212021
0.148389
0.222128
0.0837997
0.160101
0.0602269
0.179903
0.111004
0.169985
0.169458
0.208316
0.0801772
0.145996
0.0773965
0.140066
0.182423
0.187678
0.0754346
0.16241
0.183332
0.186904
0.108549
0.197988
0.0980305
0.18081
0.127822
0.207014
0.10586
0.211843
0.107323
0.197938
0.138993
0.246229
0.134135
0.163575
0.0835454
0.18232
0.0949341
0.178857
0.202262
0.231348
0.438569
0.210119
0.175526
0.173436
0.180955
0.208034
0.412175
0.123996
0.113168
0.171672
0.115921
0.221209
0.171734
0.209435
0.166712
0.212585
0.0813656
0.205971
0.190499
0.182239
0.179227
0.214367
0.15691
0.182061
0.453269
0.12766
0.0837356
0.25049
0.170236
0.270272
0.157081
0.169413
0.105456
0.18075
0.45662
0.138804
0.0980914
0.172026
0.105143
0.177821
0.196212
0.226728
0.114559
0.242234
0.310875
0.142516
0.33892
0.193358
0.231068
0.194916
0.118154
0.177365
0.0538382
0.159995
0.221923
0.177145
0.0934192
0.188178
0.206782
0.200034
0.158406
0.207371
0.102348
0.205055
0.141717
0.224847
0.122822
0.189276
0.159088
0.208195
0.0971523
0.192818
0.293618
0.174267
0.177174
0.181405
0.0958726
0.23022
0.26554
0.180608
0.129683
0.213207
0.145413
0.234575
1.15548
0.0907111
0.0958853
0.153913
0.104598
0.107909
0.0836133
0.145204
0.88545
0.105093
0.189058
0.0931077
0.0553676
0.0996981
0.0829512
0.135553
0.0576693
0.0963351
0.177484
0.098009
0.0498828
0.101086
0.210243
0.0867508
0.650558
0.134952
0.0610685
0.154149
0.100954
0.138104
0.0492661
0.099174
0.800239
0.0908347
0.0606974
0.130729
0.110591
0.147047
0.0635145
0.119652
0.061389
0.114081
0.0734764
0.122482
0.0996604
0.129856
0.110552
0.107506
0.116822
0.123594
0.106324
0.104275
0.647953
0.0862741
0.103058
0.124995
0.0899503
0.114821
0.0805785
0.125104
0.0522905
0.0975145
0.639136
0.0907254
0.0645715
0.117415
0.119364
0.137529
0.0831122
0.143966
0.0800856
0.13518
0.0589106
0.133685
0.637525
0.0947615
0.0609382
0.13342
0.116574
0.139303
0.200987
0.100399
0.0651626
0.134379
0.0583104
0.109724
0.397833
0.0936304
0.118849
0.156686
0.102237
0.137684
0.139832
0.149377
0.0571756
0.122453
0.109993
0.134852
0.17843
0.10029
0.687139
0.0874673
0.057384
0.107304
0.590713
0.129406
0.110971
0.105459
0.592776
0.0983719
0.690649
0.0972798
0.356893
0.102148
0.19492
0.109395
0.466153
0.107879
0.0938182
0.144559
0.195845
0.146772
0.589883
0.095355
0.27384
0.161622
0.561509
0.0920687
0.0694149
0.121777
0.0568033
0.0972754
0.0824736
0.117108
0.29145
0.0966734
0.20763
0.126918
0.0952632
0.11095
0.102918
0.14964
0.0771297
0.125855
0.0931792
0.144328
0.264312
0.144302
0.0368909
0.100158
0.111248
0.143992
0.260192
0.142928
0.22538
0.181493
0.444617
0.105111
0.0819289
0.137715
0.147195
0.142663
0.0846135
0.133868
0.152085
0.147084
0.270944
0.119746
0.126009
0.134041
0.161237
0.134391
0.0715743
0.136675
0.110378
0.166714
0.096052
0.126357
0.197863
0.153562
0.104021
0.149078
0.0520716
0.106589
0.095938
0.166872
0.127754
0.179625
0.0648185
0.128786
0.096484
0.139643
0.523974
0.0909916
0.154415
0.14333
0.112809
0.134906
0.177019
0.214891
0.146627
0.163381
0.315653
0.112753
0.157499
0.113455
0.0749679
0.123022
0.416052
0.135692
0.169765
0.138149
0.258245
0.0915457
0.0765344
0.133291
0.0823195
0.152763
0.101565
0.131041
0.0643636
0.113843
0.611918
0.0958933
0.14668
0.119079
0.0859297
0.123067
0.114009
0.222358
0.135374
0.166389
0.0782842
0.157155
0.067921
0.119349
0.102721
0.153216
0.0556983
0.143428
0.0723654
0.156633
0.132755
0.135721
0.119673
0.169744
0.0810538
0.134222
0.168172
0.170997
0.104512
0.13927
0.0511274
0.127288
1.14793
0.0996727
1.14768
0.145491
1.14579
0.13604
1.14515
0.161922
1.14407
0.162646
1.14297
1.14657
0.163619
0.0613705
1.14291
1.04535
0.705126
0.0971653
1.04507
0.687822
0.293117
0.0903902
0.687301
0.0902038
1.04485
0.204421
0.255308
1.01118
0.474406
0.0749363
1.01104
0.0850516
0.199391
0.128431
0.685803
0.140526
0.68383
0.100718
0.472888
0.107261
1.01064
0.104309
0.68302
0.154019
0.6804
0.427388
0.302503
0.169668
1.00904
0.155316
0.677691
0.108417
1.00862
0.182424
0.416009
0.126644
0.676214
0.683091
0.891002
0.17648
0.679142
0.164555
0.67295
0.1737
0.225066
0.0973293
0.299107
0.0939883
0.890653
0.0932241
0.678556
0.162247
0.669791
0.201751
0.39955
0.108344
0.396876
0.116208
0.889993
0.882403
0.261503
0.130503
0.676943
0.226766
0.24716
0.168083
0.386561
0.150184
0.67447
0.199524
0.668598
0.126296
0.668291
0.19449
0.663067
0.118014
0.881699
0.222167
0.323029
0.142499
0.230239
0.100018
0.662308
0.779838
0.595494
0.206248
0.661678
0.186047
0.657377
0.134038
0.655515
0.104035
0.255895
0.354826
0.235679
0.237927
0.272517
0.128414
0.778675
0.0982069
0.594602
0.112687
0.660586
0.348639
0.626486
0.169265
0.334798
0.118931
0.654207
0.190422
0.648784
0.233183
0.615527
0.221887
0.298522
0.150854
0.237068
0.112948
0.777882
0.132195
0.592416
0.160514
0.282174
0.18207
0.586627
0.255571
0.569991
0.15923
0.645571
0.134865
0.776529
0.158197
0.774334
0.145419
0.238801
0.0912606
0.228427
0.173336
0.586033
0.124932
0.613807
0.117168
0.612381
0.190116
0.562852
0.150272
0.609349
0.591045
0.397015
0.556503
0.377763
0.166784
0.771746
0.267182
0.535167
0.287802
0.561917
0.154374
0.272162
0.143289
0.770096
0.108636
0.374744
0.31607
0.314146
0.256764
0.544445
0.198975
0.534982
0.22569
0.271802
0.544004
0.254236
0.22858
0.343932
0.160004
0.299652
0.162668
0.767669
0.122892
0.532998
0.187346
0.763932
0.228113
0.306571
0.326629
0.490858
0.180315
0.760568
0.0897558
0.253055
0.185359
0.537187
0.135191
0.318719
0.369356
0.471211
0.273492
0.310489
0.534684
0.659699
0.14354
0.466728
0.140926
0.531401
0.346193
0.425021
0.211721
0.521621
0.181898
0.655056
0.209752
0.407261
0.123994
0.303752
0.232945
0.505652
0.355726
0.618036
0.152359
0.527192
0.375225
0.365533
0.178908
0.350649
0.148498
0.346882
0.249949
0.296719
0.200125
0.610961
0.211487
0.602394
0.17865
0.520263
0.256698
0.498538
0.151776
0.541942
0.251352
0.484039
0.244087
0.478218
0.325329
0.429038
0.235832
0.526627
0.545882
0.382428
0.291712
0.314498
0.290811
0.439287
0.319785
0.373415
0.277152
0.423168
0.459574
0.365898
