# vtk DataFile Version 3.0
Tree
ASCII
DATASET POLYDATA
POINTS 1582 float
162774 225274 273.8
162774 225274 10273.8
141774 225774 23773.8
137774 213262 31773.8
139214 218071 31273.8
135774 209186 52773.8
136806 211851 46323.8
151774 204002 58773.8
137528 213717 41809
113514 200774 48773.8
135460 209238 51864.2
129774 199846 69773.8
131480 202663 64401
112774 194090 66773.8
132674 204636 60639.8
147774 197954 76773.8
145009 198867 70751
165774 187774 74089.8
145838 198593 72557.8
134654 195774 86773.8
114840 194561 65454.6
98773.8 185974 64773.8
113393 194231 66378.2
108774 188002 85773.8
161046 188669 72024.2
172050 172774 65773.8
164355 188042 73470.2
173246 181774 95773.8
100390 185795 64657
90773.8 177974 63773.8
134347 195836 85253.4
120774 192774 97589.8
134561 195793 86317.8
140774 195998 101774
110529 190369 78403.4
95569.8 180774 80773.8
169631 174405 67321.4
175998 153774 64773.8
169867 184156 87298.2
180058 166774 88773.8
171324 173263 66238.2
168774 167954 52773.8
172993 181347 94347.4
179886 172774 106774
122037 193873 96773.8
109774 193202 108774
173827 158644 64166.2
172774 148774 55521.8
94377.4 180115 66044.2
81485.8 164774 76773.8
138910 195936 97137
127774 195998 112774
175347 155235 64591.4
181774 144774 76345.8
178019 173815 102425
183782 158774 106774
86038.2 170789 74698.6
81773.8 169386 88773.8
84167.4 171303 84064.2
85773.8 178774 98365.8
85291.8 176533 94075.4
96773.8 185786 96773.8
127697 196195 110817
114774 196774 123658
127751 196057 112187
142774 195998 124774
111405 192935 105674
97773.8 190002 109774
147347 197728 76303.8
151774 194014 88773.8
136092 196027 116815
149774 195994 113774
173090 151735 58115
179774 124774 60345.8
148055 195272 113895
163886 190774 108774
82851.4 166578 76151.4
81549.8 148774 62773.8
181592 164489 105121
183998 151774 92773.8
180350 145498 73512.2
183998 129774 78773.8
183125 160489 106278
183998 148774 120774
183596 154163 114106
183998 159774 129774
177719 131493 58403.4
177986 120774 50773.8
140855 196008 123948
145774 195998 138774
81895.4 165315 76587
75549.8 151774 88773.8
84954.6 174964 91072.2
77773.8 166774 108794
80502.6 169886 102059
76773.8 154774 101890
183455 156060 111757
183998 137774 112774
183348 153527 96387.4
183998 139774 94773.8
117981 197038 122587
112758 199774 140774
85629.4 178101 97078.6
83773.8 181090 113774
183888 148829 120653
183986 138774 132774
149121 195719 113820
159078 193774 126774
82188.6 151481 66665.8
83601.8 133774 64773.8
183857 156550 125410
183998 150774 137774
179326 173086 105469
175890 180774 117774
115578 198296 130953
127774 198774 142378
78349.8 152747 86274.2
78297.8 139774 93773.8
175589 140805 58271
182774 131774 39189.8
144005 195939 137669
145078 195774 151774
78176.6 157174 103039
79601.8 142774 109774
178703 124106 51832.6
183774 117774 39261.8
183933 144203 126229
182774 130258 123774
113047 198508 138877
107774 194426 151774
78334.2 148855 88523.8
79605.8 135774 80773.8
183405 139274 131183
179970 128774 137774
85254.6 181234 110806
90773.8 187886 124774
84747 136125 63373.8
87573.8 123774 59773.8
144756 195823 147543
133774 198014 155774
86910.6 183230 114997
85729.8 174774 128774
182100 135284 133687
179774 136774 150894
90850.6 187033 123983
98773.8 190774 137982
183682 152753 136395
182014 153774 151774
175557 179770 116636
170774 185974 127774
85918.2 178246 120803
82773.8 168774 122026
145243 195980 138443
162794 191774 142774
79140.2 150958 107459
81497.8 148774 117774
182380 131505 123439
180042 118774 119774
108530 194037 149131
103006 183774 157774
180500 130414 135130
175998 116774 133774
105135 191586 107560
101774 194002 120774
179468 134992 146141
171774 127774 159962
108001 194309 150981
115774 194774 163274
78937 141245 91796.2
82773.8 127578 92773.8
134768 197869 153420
124774 200002 156774
85595 132420 62293.8
88997.8 129774 49773.8
134072 197971 155067
133774 198014 168774
87439 125820 59395.8
91557.8 116774 50773.8
133983 197983 159179
143774 195022 164774
87533.4 124388 59660.6
88361.8 115774 73773.8
104663 186853 155181
109774 183194 168774
176229 131053 150661
171174 120774 151774
80166.2 143443 109569
84521.8 131774 112774
179805 119309 120373
177194 109774 118774
87781.8 121803 63894.6
91657.8 110774 63773.8
85908.2 174445 125689
86317.8 159774 135774
181787 153529 151489
179774 153774 163938
81429 148383 116109
85553.8 141774 125774
172691 123857 151440
171842 115774 143774
82577.8 129588 92089.8
88773.8 115578 89773.8
85783.4 174675 127848
92773.8 172774 145890
175558 117369 133747
171842 108774 132774
83161 145646 65414.6
85529.8 141774 53773.8
103707 183910 156804
101034 171774 161774
171857 127959 158202
163774 122774 165326
90495 114083 63809.8
93601.8 107774 54773.8
135009 197547 165908
141954 194774 177774
82715 128181 92568.6
85773.8 122774 102810
172897 183354 124996
173978 182774 135774
179058 136285 150301
175774 139774 163970
86566.6 160775 133353
87557.8 150774 135774
183829 158947 129437
183222 163774 140774
86915 119781 90468.6
91033.8 113774 99773.8
144955 195793 150166
154774 191990 154774
179578 154815 162203
176774 157774 171970
91309 111767 63784.6
95773.8 104266 75773.8
101270 173931 159872
97561.8 163774 157774
177339 110808 118226
173198 98773.8 111774
91553 111072 63777
96317.8 101774 62773.8
109818 183687 167278
115774 180774 178966
171225 117483 146317
165318 107774 142774
84781 142407 122531
90345.8 129774 126774
141361 194105 174537
147774 189214 179774
167492 125159 162049
161322 114774 157774
88926.6 116153 90212.6
95573.8 106774 90773.8
128231 199085 154351
118774 200002 149774
172136 109807 132337
166774 99573.8 127774
166079 124253 163294
162774 131574 177774
89449.8 131857 124576
93505.8 122774 123774
166496 109145 142228
162774 101574 136774
175442 139442 163434
171774 141578 173774
98674.2 166821 158403
93553.8 164774 149774
101105 172421 161203
109514 166774 175774
173629 99982.2 111642
171186 92773.8 105774
177195 155983 169644
172774 152382 179774
86399.8 123384 102043
91505.8 118774 111774
182841 164088 139939
181782 168774 148774
176603 157697 171832
173774 164774 180790
103627 170727 165575
103774 158774 169082
164465 123217 164716
156774 116774 165950
90254.6 119356 107589
98249.8 108774 111774
183217 162135 135949
179994 173774 136774
162264 129955 176935
159278 132774 185774
96112.6 102509 62815
101030 93773.8 61773.8
173405 183211 134404
171974 184774 146774
94439.4 108606 91462.2
100290 101774 96773.8
143241 194500 163824
153062 189774 167774
98066.6 104370 94755.4
103774 98289.8 89773.8
90077 130399 126115
97773.8 124774 136970
167929 101168 127274
164774 93573.8 120774
95186.2 126043 132583
98533.8 119774 132774
174742 103230 113617
177774 100498 99773.8
173697 163423 179795
167774 168774 190962
108791 168261 174420
115702 169774 185774
165129 94380.2 120894
162434 87773.8 113774
104294 161441 168975
107774 154774 175082
181367 168701 147089
176774 177290 153774
170725 93460.2 106798
163182 83773.8 101774
172797 152532 178522
166542 147774 189774
111407 167621 179075
114146 160774 185774
168919 149582 185498
167774 155774 193890
97798.2 109785 110155
105774 100290 110774
154513 192026 154139
165062 187774 157774
171047 92979.8 106081
173866 91773.8 93773.8
98114.2 109077 111288
101774 109774 122570
167121 100052 127624
159378 94773.8 129774
170025 166741 186719
165774 176402 185774
100633 95012.2 62335
107682 85773.8 63773.8
168301 152925 190030
163826 149774 197774
100911 94145.4 61942.2
103774 87773.8 54097.8
96997.4 125155 135654
97773.8 133578 145774
165445 86679.8 103281
167038 83773.8 91773.8
103305 98617.4 89526.6
110254 90773.8 81773.8
150790 190490 167845
155774 185774 175898
100091 109453 117380
107774 102774 121134
112811 162458 182613
113022 151774 183774
97468.6 100260 62671
99485.8 96773.8 53773.8
177521 175319 153229
173254 179774 162774
100241 102293 96605.8
106774 97505.8 101774
107164 155174 173530
110130 144774 175774
163159 84664.6 101843
154774 79549.8 96773.8
167361 85118.2 94320.6
172418 87773.8 87773.8
167049 173503 186057
157970 177774 193774
176229 176305 157282
176526 173774 163774
106502 95009.4 85960.2
103774 94237.8 73773.8
113445 152563 183403
114774 142382 183774
161973 88857.4 115276
153950 82773.8 110774
105469 104778 120008
109774 106774 133130
107408 87179.8 63198.2
116774 77597.8 63773.8
107438 103376 121239
113774 99773.8 125990
98040.6 132897 145055
99613.8 140774 154774
146742 189539 179060
152774 182102 184774
98512.6 135260 147971
94773.8 144774 147890
167135 84177 92537.8
159774 79561.8 86773.8
109921 145751 175056
112774 136378 175774
171522 86917 88341
175774 86773.8 79197.8
114045 160793 185282
118286 154774 193774
170274 86377.4 90135
168774 80773.8 79949.8
115542 143095 183637
117774 135110 183774
175733 175142 162409
171774 175774 173966
112256 101281 125697
118774 101538 135774
116730 155761 190665
117774 146774 192802
115923 79873.4 64709.8
124438 74773.8 67773.8
154279 187189 173482
163774 183842 171774
99283.4 139120 152733
105454 136774 160774
113319 100226 125902
120218 94773.8 123774
117912 148004 192081
120774 138230 191774
99774.6 140358 154550
102154 144774 161774
168619 81306.6 81707.4
164774 73773.8 72861.8
111775 138709 174543
112774 129598 168774
117060 102062 134173
119102 105774 143774
166156 175532 185859
165774 179418 178774
118771 145072 191989
124774 141570 198774
97393.8 128097 139226
91593.8 139774 138774
117133 136877 182793
118774 127774 177110
120513 139173 191459
122774 131774 189110
122443 133072 189025
124774 126774 183970
118853 95513.4 123368
123774 89541.8 116774
117697 105455 140973
114170 112774 147774
118260 101695 135293
125774 98773.8 137970
119808 94995.8 123652
125590 94773.8 130774
118680 105678 142934
128774 102522 147774
121904 91811 119280
131774 87773.8 121890
125951 89843.8 119214
131774 85545.8 113774
87022.6 156174 134467
91021.8 153774 143774
114511 110467 144445
105774 118774 144886
114016 112806 147449
112218 118774 153774
124804 104614 147093
131422 107774 157774
131181 88033 121011
138774 85633.8 120774
[...]
CELL_DATA 1581
SCALARS radius float
LOOKUP_TABLE default
2.122e-314
100
100
1.15762
0.170234
1.1562
0.206629
1.14954
1.15177
0.249563
1.14921
0.0900977
0.208667
0.825978
0.830393
0.981373
0.728701
0.823378
0.725016
0.180094
0.295823
0.812867
0.0529987
0.295255
0.770834
0.45269
0.0642476
0.770685
0.0651137
0.811267
0.706
0.305646
0.047444
0.705929
0.205269
0.246518
0.130598
0.420372
0.18507
0.766105
0.0638462
0.1253
0.0657916
0.765364
0.0739527
0.296218
0.291139
0.358114
0.809009
0.134635
0.118537
0.702235
0.0746539
0.289494
0.741362
0.34218
0.683353
0.592148
0.585766
0.167624
0.438248
0.188569
0.519085
0.59043
0.512412
0.174626
0.26026
0.190565
0.0541583
0.15682
0.321829
0.466021
0.336006
0.199927
0.234152
0.273664
0.609794
0.452016
0.729636
0.266984
0.157572
0.177001
0.0728046
0.729394
0.49188
0.643108
0.126445
0.30972
0.140133
0.461759
0.0552146
0.609643
0.44959
0.479306
0.470484
0.181401
0.727472
0.129915
0.172276
0.227909
0.588528
0.125633
0.0698608
0.437656
0.041423
0.642304
0.0626372
0.232648
0.093985
0.445363
0.304307
0.440158
0.32327
0.184515
0.584959
0.154471
0.0872829
0.60629
0.316591
0.18374
0.441517
0.17322
0.15144
0.463285
0.197811
0.273052
0.475663
0.539886
0.0795074
0.580415
0.598064
0.207608
0.52523
0.21442
0.090947
0.4312
0.435338
0.13021
0.233356
0.418621
0.398333
0.250755
0.369421
0.455453
0.081531
0.218562
0.0851503
0.43696
0.0742289
0.32196
0.375334
0.208503
0.0614279
0.170606
0.220391
0.443623
0.0733931
0.472954
0.250114
0.564501
0.359509
0.158076
0.209044
0.204032
0.416661
0.27566
0.0650614
0.248637
0.596539
0.117759
0.38075
0.254435
0.130336
0.431408
0.0700702
0.379958
0.414857
0.207164
0.298495
0.304588
0.41142
0.120739
0.553518
0.19687
0.292101
0.361934
0.0773138
0.181809
0.0681867
0.461495
0.402879
0.161953
0.245527
0.336417
0.0592007
0.434516
0.0823858
0.44037
0.263149
0.188526
0.560902
0.329633
0.130622
0.232528
0.0700599
0.34925
0.439186
0.153613
0.072418
0.553105
0.341894
0.176951
0.13959
0.397214
0.108135
0.293688
0.0589339
0.560685
0.280179
0.224928
0.0751885
0.273783
0.109086
0.302712
0.0657248
0.303281
0.301941
0.191665
0.220496
0.125723
0.0917232
0.420229
0.383778
0.183184
0.218326
0.537959
0.0768948
0.460782
0.0579599
0.383337
0.0969131
0.165611
0.217187
0.199813
0.426439
0.18233
0.124008
0.274701
0.157443
0.330382
0.295354
0.120796
0.212446
0.190221
0.0829151
0.347686
0.21214
0.298192
0.405896
0.184119
0.131523
0.199746
0.0794054
0.2631
0.142387
0.195918
0.0693138
0.537575
0.443636
0.140475
0.359949
0.293249
0.0705021
0.55876
0.0726777
0.293257
0.0567995
0.359477
0.448778
0.402007
0.0897905
0.206637
0.554231
0.161444
0.294737
0.131843
0.189887
0.236791
0.0770861
0.382295
0.173113
0.256148
0.283163
0.145187
0.0879323
0.302125
0.259413
0.173771
0.079653
0.40487
0.327634
0.169365
0.383048
0.21661
0.448282
0.181476
0.100618
0.340493
0.0926728
0.447457
0.312837
0.165745
0.0987432
0.396376
0.282132
0.140317
0.203406
0.428899
0.276716
0.159126
0.133351
0.436483
0.232977
0.204427
0.542949
0.216771
0.15061
0.194022
0.0658958
0.201075
0.0633117
0.542662
0.0816813
0.16278
0.144546
0.331579
0.170318
0.326033
0.168153
0.199087
0.0742154
0.165485
0.0983973
0.380871
0.18233
0.417621
0.236284
0.162175
0.282078
0.172506
0.112878
0.541029
0.359083
0.332793
0.356307
0.219927
0.263879
0.15983
0.081838
0.167497
0.0922607
0.384767
0.0927555
0.173949
0.2716
0.375158
0.246678
0.277827
0.216152
0.202269
0.17319
0.199975
0.0878107
0.324447
0.238766
0.257151
0.534651
0.176893
0.305528
0.183077
0.0700363
0.53425
0.0982614
0.357573
0.112793
0.241916
0.321425
0.232148
0.0922066
0.268011
0.0907513
0.376131
0.171906
0.298321
0.0703854
0.358179
0.31625
0.276643
0.0988914
0.321355
0.128456
0.199828
0.438431
0.408587
0.343412
0.176008
0.218522
0.262487
0.138126
0.270575
0.253479
0.256731
0.0712624
0.437803
0.106194
0.332269
0.206424
0.19566
0.130285
0.266654
0.118097
0.37221
0.400064
0.161089
0.110217
0.239114
0.177616
0.314408
0.36003
0.172886
0.127533
0.314515
0.29217
0.183107
0.137253
0.281703
0.193822
0.424755
0.324852
0.309856
0.0828139
0.153435
0.0711847
0.190567
0.312824
0.154231
0.415456
0.170122
0.256625
0.379854
0.241228
0.23929
0.1792
0.273013
0.23816
0.189832
0.260604
0.234614
0.165753
0.231126
0.157868
0.21234
0.212947
0.356091
0.074561
0.19225
0.0596662
0.187846
0.0780516
0.209393
0.0761171
0.228341
0.33391
0.199356
0.154647
0.322465
0.355154
0.189165
0.151642
0.203428
0.233811
0.232939
0.248861
0.293267
0.143643
0.285084
0.154973
0.249726
1.15743
0.091178
0.062122
0.167431
1.15578
0.119163
0.078028
0.16158
0.100772
0.147288
0.120467
0.191964
0.15983
0.225458
0.117999
0.134625
0.0688608
0.223296
0.0829614
0.211636
0.0902849
0.174549
0.108371
0.159337
0.0671209
0.209361
0.0879768
0.82068
0.200674
0.100155
0.821017
0.168549
0.149596
0.161244
0.0740597
0.155859
0.819711
0.125035
0.170077
0.134263
0.113649
0.149186
0.811407
0.142447
0.286961
0.128238
0.0529176
0.168352
0.109433
0.116468
0.0575007
0.111596
0.247455
0.426564
0.238685
0.115845
0.769688
0.102166
0.424532
0.103342
0.102393
0.301766
0.119741
0.145096
0.81025
0.126111
0.41331
0.154403
0.0679032
0.236839
0.0913493
0.232219
0.154626
0.138241
0.125702
0.807996
0.0553063
0.152001
0.0928791
0.227157
0.118991
0.231609
0.115703
0.129027
0.703359
0.156437
0.0912226
0.145327
0.103775
0.177419
0.156461
0.160844
0.290633
0.112992
0.0656495
0.119425
0.185581
0.174679
0.132647
0.169163
0.0863509
0.134358
0.0751586
0.186585
0.0979996
0.142423
0.211476
0.238087
0.0508202
0.183221
0.0561341
0.158532
0.2037
0.229216
0.0605185
0.183411
0.0843284
0.198764
0.102884
0.175514
0.448902
0.123769
0.223274
0.133241
0.106335
0.122244
0.0673972
0.168767
0.145366
0.200489
0.039521
0.173949
0.256882
0.107754
0.152258
0.162901
0.0560361
0.16551
0.12459
0.216223
0.152007
0.147251
0.166469
0.193322
0.0662395
0.170686
0.142376
0.487871
0.0778729
0.196494
0.105957
0.608574
0.446754
0.10892
0.11624
0.105709
0.468618
0.107273
0.606892
0.123073
0.062322
0.120298
0.155526
0.18515
0.42903
0.106396
0.065568
0.15154
0.580912
0.16038
0.210623
0.148102
0.144572
0.156205
0.157454
0.131993
0.450231
0.19302
0.0682964
0.14666
0.16382
0.235323
0.432544
0.142655
0.106369
0.197849
0.16574
0.168579
0.46106
0.112557
0.111603
0.147715
0.0819375
0.159203
0.473543
0.112733
0.0744827
0.154836
0.123023
0.223535
0.108832
0.148334
0.0580219
0.212994
0.0862683
0.187417
0.065488
0.110579
0.0812105
0.128871
0.0956048
0.141584
0.186355
0.161766
0.0655733
0.223055
0.123972
0.180076
0.128042
0.116634
0.071317
0.122648
0.134065
0.155238
0.153653
0.151473
0.453523
0.10615
0.415378
0.119153
0.0783379
0.209402
0.106334
0.563241
0.0766664
0.175319
0.143908
0.185057
0.0664994
0.124604
0.46199
0.179835
0.090893
0.187939
0.157804
0.1782
0.0970944
0.201815
0.350188
0.152138
0.561698
0.11355
0.127289
0.219046
0.0791741
0.133696
0.441329
0.110457
0.111981
0.187325
0.150198
0.13788
0.150153
0.178412
0.357016
0.124005
0.437272
0.121407
0.0840027
0.143072
0.106127
0.161259
0.192227
0.149445
0.111714
0.20626
0.117839
0.425854
0.549688
0.146064
0.15169
0.15026
0.42884
0.125949
0.138734
0.328361
0.108871
0.195608
0.325756
0.10769
0.307362
0.185345
0.0861654
0.172983
0.145456
0.16468
0.132546
0.172756
0.070283
0.173176
0.0721442
0.159929
0.0739083
0.144046
0.0812371
0.183357
0.0829649
0.145081
0.0819819
0.136891
0.265489
0.121848
0.41815
0.164292
0.154831
0.165962
0.282878
0.139168
0.42168
0.131004
0.154341
0.218003
0.0988473
0.161476
0.0516937
0.117554
0.0811081
0.166962
0.116653
0.153348
0.102727
0.149636
0.457984
0.120993
0.415736
0.133045
0.117101
0.168233
0.11853
0.165086
0.108668
0.179232
0.398408
0.120028
0.342075
0.126039
0.151927
0.138212
0.176007
0.129622
0.272
0.185579
0.559134
0.113416
0.114558
0.146603
0.131367
0.160366
0.343397
0.181298
0.440593
0.159524
0.249828
0.172537
0.110625
0.176442
0.10826
0.16496
0.0602054
0.147332
0.064641
0.135756
0.115367
0.255488
0.0798692
0.177071
0.0722451
0.133618
0.135154
0.18522
0.0782072
0.137191
0.0820046
0.151947
0.181754
0.196676
0.0863013
0.152766
0.148268
0.139542
0.0947374
0.167527
0.138358
0.241176
0.340843
0.177979
0.142045
0.240671
0.0735424
0.153707
0.161037
0.146243
0.187425
0.188454
0.105066
0.133986
0.0844317
0.165482
0.141657
0.223642
0.386527
0.165434
0.0726145
0.160962
0.117605
0.158887
0.101948
0.144599
0.0650904
0.158602
0.0862036
0.236927
0.0764014
0.192755
0.326577
0.126558
0.181002
0.249411
0.13716
0.22049
0.137386
0.196548
0.372856
0.150595
0.127499
0.186342
0.0965052
0.174819
0.0754855
0.192764
0.147102
0.196058
0.161371
0.186003
0.135224
0.178181
0.145948
0.134376
0.0846333
0.164777
0.0848869
0.176779
0.156102
0.249048
0.335846
0.137828
0.176736
0.225614
0.115941
0.188678
0.164377
0.222892
0.187075
0.196702
0.0859801
0.179666
0.155901
0.226747
0.0765179
0.191679
0.106404
0.207689
0.156078
0.252021
0.108968
0.209089
0.165683
0.225448
0.133376
0.187445
0.126958
0.157577
0.180531
0.19847
0.140711
0.287498
0.377884
0.144268
0.157981
0.204628
0.0783916
0.170664
0.186365
0.226451
0.14581
0.204547
0.125361
0.246353
0.111947
0.179254
0.134973
0.277218
0.0872642
0.176247
0.296755
0.170751
0.0833138
0.213869
0.167167
0.24266
0.168666
0.207027
0.343795
0.160855
0.15638
0.259526
0.0693792
0.149401
0.107
0.14892
0.157312
0.180588
0.22157
0.189649
0.0970002
0.215192
0.0920054
0.160632
0.0921859
0.182092
0.296644
0.153906
0.0926805
0.191491
0.183973
0.1884
0.167644
0.164721
0.110795
0.187226
0.0860376
0.183035
0.190166
0.204366
0.139228
0.161621
0.151535
0.153628
0.0943021
0.197441
0.0712301
0.230697
0.294035
0.200912
0.268217
0.180972
0.169886
0.263361
0.123737
0.273509
1.15566
0.0780658
0.0924656
0.096603
0.116758
0.117046
1.1494
0.0835858
0.0418806
0.0869742
0.0812198
0.106633
0.182256
0.100659
0.215802
0.102718
0.0891561
0.120076
0.825723
0.0804977
0.196092
0.117846
0.194341
0.0904986
0.0449279
0.0970464
0.0846655
0.150934
0.0904841
0.118866
0.724601
0.0867662
0.0581058
0.108342
0.14469
0.0938814
0.103687
0.124718
0.158944
0.12222
0.084388
0.110624
0.0980255
0.133484
0.0745724
0.112161
0.0891607
0.199501
0.241637
0.0955464
0.770288
0.0891106
0.0854678
0.114077
0.188542
0.107375
0.0562423
0.114646
0.064858
0.108628
0.765526
0.10062
0.098875
0.113802
0.0817188
0.113444
0.058159
0.108495
0.192872
0.173794
0.0674157
0.126568
0.807603
0.0916013
0.0895495
0.12437
0.0632713
0.112195
0.297747
0.10271
0.0809405
0.167733
0.116534
0.158769
0.0911887
0.140163
0.764905
0.0930532
0.284196
0.109357
0.701828
0.0843764
0.590306
0.124542
0.263052
0.0939218
0.105496
0.141116
0.11304
0.148498
0.145146
0.145997
0.0976301
0.163856
0.0948008
0.158592
0.0823199
0.122799
0.0538202
0.130247
0.0329683
0.104629
0.055888
0.120671
0.109377
0.151805
0.0818949
0.170953
0.189761
0.118417
0.0943721
0.138762
0.728851
0.0953379
0.0825817
0.155495
0.103158
0.162726
0.114233
0.144915
0.105264
0.156455
0.11565
0.150751
0.0685194
0.116331
0.304014
0.117253
0.0880798
0.139976
0.0988351
0.130597
0.0939337
0.101164
0.642362
0.09742
0.0781872
0.149381
0.113928
0.182794
0.0666178
0.140062
0.484108
0.138669
0.127916
0.162032
0.138831
0.165285
0.166132
0.111442
0.102394
0.188207
0.078365
0.159191
0.134274
0.161927
0.103726
0.142901
0.110631
0.115705
0.536882
0.137732
0.0915767
0.135367
0.0585845
0.135092
0.259268
0.143097
0.111144
0.138593
0.438035
0.107084
0.0717745
0.144474
0.143497
0.153662
0.137449
0.155234
0.0817675
0.127365
0.0860526
0.171243
0.0943368
0.132287
0.210428
0.121192
0.395661
0.108099
0.140957
0.203028
0.222281
0.168504
0.194774
0.121487
0.086022
0.160755
0.434882
0.105822
0.0680769
0.150741
0.084142
0.161198
0.0613382
0.120654
0.122282
0.133143
0.0582271
0.155398
0.102622
0.146626
0.126574
0.119657
0.10472
0.242284
0.470901
0.111126
0.130472
0.1817
0.432431
0.105517
0.224658
0.142337
0.216651
0.105364
0.0815701
0.147513
0.144871
0.138182
0.148276
0.150048
0.09264
0.127827
0.196122
0.110446
0.145805
0.123114
0.0480874
0.11814
0.20233
0.130595
0.140067
0.156396
0.133365
0.123328
1.13951
0.0825123
1.13937
0.145739
1.13857
0.149839
1.13665
0.216931
1.13401
0.159086
0.183535
1.13751
0.160103
0.113256
1.13363
1.03902
0.694637
0.0921801
1.03877
0.196854
0.689327
0.104587
0.186476
0.0876652
1.03857
0.183316
0.684978
0.996769
0.506421
0.069583
0.996656
0.0858071
0.684529
0.476703
0.278275
0.102568
0.475115
0.182608
0.249115
0.0922023
0.996393
0.145185
0.682345
0.993332
0.208686
0.142199
0.470831
0.12874
0.680814
0.172979
0.677071
0.121287
0.992729
0.454607
0.218433
0.113709
0.676
0.115876
0.196024
0.98855
0.23085
0.0902771
0.988299
0.884796
0.648424
0.388009
0.328772
0.180113
0.671711
0.121049
0.384042
0.115587
0.207063
0.126237
0.217511
0.116022
0.88413
0.102591
0.647567
0.628714
0.284524
0.0813713
0.246186
0.171328
0.312468
0.161893
0.374202
0.872547
0.299291
0.10416
0.62776
0.122328
0.276778
0.174896
0.870198
0.219182
0.271345
0.105275
0.670848
0.111788
0.626576
0.143674
0.624048
0.203721
0.352884
0.194521
0.665351
0.157812
0.222335
0.103959
0.29505
0.201131
0.235532
0.162727
0.277531
0.0931583
0.869842
0.223353
0.320108
0.101603
0.664561
0.654163
0.238471
0.138967
0.621742
0.387977
0.843313
0.206775
0.614023
0.119893
0.384122
0.356178
0.616882
0.202138
0.333001
0.172916
0.253062
0.133287
0.842202
0.192031
0.367408
0.128653
0.612135
0.164722
0.608133
0.119363
0.228054
0.0797686
0.331469
0.160058
0.613269
0.21132
0.604788
0.129589
0.361954
0.17948
0.839476
0.480876
0.783189
0.562153
0.361531
0.143643
0.559009
0.244661
0.31948
0.109049
0.479
0.254496
0.27115
0.422882
0.462703
0.138192
0.781752
0.095153
0.604002
0.131029
0.260541
0.233777
0.325992
0.22457
0.593472
0.143829
0.417261
0.295737
0.418309
0.215488
0.463998
0.193339
0.293882
0.149415
0.779928
0.158199
0.410626
0.267993
0.376573
0.771407
0.24869
0.108659
0.592255
0.188301
0.360175
0.275628
0.364174
0.534792
0.379813
0.258043
0.513966
0.120358
0.461282
0.191815
0.767433
0.116924
0.239757
0.18621
0.364266
0.749799
0.312262
0.100814
0.51267
0.147229
0.456228
0.257189
0.315223
0.594412
0.595817
0.39652
0.319507
0.220499
0.372348
0.196013
0.502935
0.109212
0.593181
0.179634
0.291037
0.259787
0.324249
0.159169
0.312818
0.188306
0.58948
0.188288
0.586789
0.147446
0.308677
0.138833
0.584186
0.161271
0.585429
0.235244
0.572483
0.142264
0.56954
0.140524
0.499251
0.242831
0.569852
0.217153
0.44877
0.244638
0.554408
0.272441
0.412438
0.224833
0.541798
0.465116
0.438169
0.226936
0.483105
0.338413
0.419826
0.395489
0.459759
0.193631
0.37937
0.331886
0.392845
0.275841
0.398193
