# vtk DataFile Version 3.0
Tree
ASCII
DATASET POLYDATA
POINTS 1582 float
162774 225274 273.8
162774 225274 10273.8
141774 225774 23773.8
141774 213262 31773.8
141774 217015 29373.8
133774 208070 52773.8
136814 211469 43881.8
151774 204002 58773.8
138302 213133 39529.4
112774 201930 45773.8
133261 208129 50910.2
120774 198050 66773.8
128516 204299 56938.2
137774 198774 75297.8
149415 204203 56433
163774 191042 70773.8
123097 199925 63823
103774 190774 63157.8
159800 194418 69281.8
163082 189774 87773.8
117300 197179 63623.4
108774 188054 82773.8
114060 193711 70900.6
125774 193978 88773.8
162582 192055 70326.2
173990 173774 71773.8
163711 189768 83761
173906 180774 94773.8
124991 194189 84648.2
142774 195998 93773.8
169711 178912 69587
171950 164774 59773.8
172706 175315 71117.8
177890 172774 84773.8
106227 190496 64247
87477.8 172774 69773.8
99561 184250 68193
94773.8 180062 81773.8
125539 194041 87536.2
115774 193946 104774
172367 180292 93209.8
180062 168774 101774
109361 189574 81528.2
102774 188002 96773.8
137439 195455 91036.2
139774 195998 111774
171278 169015 62717.8
178774 151774 72253.8
171809 165176 61045
173774 149774 56445.8
89187.4 173646 70661.4
79773.8 162774 74749.8
138887 195791 103893
152774 194066 109774
175972 160168 69626.2
181782 158774 82773.8
177632 172665 100876
181942 167774 116774
86363.4 170385 71887.8
81773.8 169386 88773.8
83150.6 169685 83708.2
87121.8 179774 97773.8
118690 194261 102500
117774 196014 121774
104272 188955 94600.2
100774 191774 110650
139954 195942 111466
142774 195998 124774
141173 195835 92952.6
152774 193998 89773.8
150424 193972 107626
162774 190070 105774
178525 152332 72527
183998 134774 80773.8
181042 144255 76320.6
180002 123774 61773.8
179303 134206 65352.6
176018 131774 53773.8
180523 158310 81043.8
183998 152774 95773.8
180649 169241 112005
183998 148774 120774
182558 157155 115463
183998 145774 109774
143467 195699 121096
154774 194002 131774
83101.8 164135 73153.4
79541.8 144774 73773.8
81240.2 151130 72129.4
82773.8 141774 63577.8
80772.2 163182 74271
75561.8 155774 89773.8
181985 160781 114425
183998 156774 132774
142982 195908 123671
141774 196002 141774
77246.2 158194 87688.2
77545.8 158774 104774
179484 126025 61206.2
178054 113774 48773.8
85037.4 175963 94950.6
82161.8 177774 112774
117507 196569 121206
115774 199998 141774
76067 156500 89148.2
77549.8 142774 87773.8
159031 190727 108110
173974 182774 116774
142233 195966 134895
129774 198006 140774
77384.2 158461 95547.4
78353.8 144774 103774
178543 132260 56652.6
183970 127774 38773.8
151382 194511 128571
163774 191230 124774
183207 150978 120616
182774 138774 135958
183609 147447 109770
183998 135774 98773.8
183200 136774 80831.4
183998 130774 89773.8
83803.8 178405 109221
88345.8 185774 121774
183077 147317 125219
182774 129658 122774
183515 158015 131730
183998 157774 144774
114701 197737 135415
103774 192426 147774
82493 143977 67842.2
85477.8 128774 67773.8
141375 196266 141326
137774 197978 155774
115991 197200 128879
100774 194774 133954
77985.4 149975 100648
79561.8 150774 114774
182296 139400 133339
178774 126774 137962
154584 193700 130980
165774 189994 137774
182630 138962 135172
179774 137774 151898
85166.6 180615 112987
85017.8 171774 127774
183589 156719 142092
182006 149774 150774
182022 131047 122298
180774 120774 119954
107774 195890 131619
98773.8 193886 122774
179705 136807 148065
173774 128578 156774
107004 193069 146054
105774 186774 159322
77710.2 144660 88565
81553.8 129774 90773.8
109313 194469 142862
115774 196534 159774
85005 132835 66257.8
89561.8 119774 56773.8
113879 195967 150309
125774 200002 153774
85723.8 174721 125211
89773.8 175774 137982
179165 128706 136407
174774 116222 135774
85229.4 172658 127005
81773.8 162798 124774
182654 153460 148163
181774 154774 158790
102804 194134 133093
93773.8 186774 134978
88595 123720 58214.6
91445.8 122774 48773.8
169696 184894 117081
175774 181258 127774
81780.6 130827 89683.8
85657.8 120774 88773.8
105887 186703 156323
104774 179326 163774
177847 124961 136217
170774 118774 147978
85759.8 129210 67859.4
89485.8 114774 74773.8
115325 195574 158618
116226 190774 169774
83062.6 141985 63977.8
85537.8 137774 55773.8
78976.2 146443 103609
84353.8 134774 115774
141654 196081 141639
153970 192774 149774
88642.2 119099 71373.8
92773.8 109574 67773.8
105553 184490 158558
97773.8 174050 155774
139333 197067 154393
141970 194774 173774
89625.4 120667 56528.6
93537.8 111774 49773.8
85081.4 172039 127543
87553.8 157774 137774
182639 160711 124575
181962 168774 133774
174115 129913 155402
164774 122242 163774
115287 191614 166022
111774 184774 170866
180271 121448 120499
174774 105774 119326
82943.8 127811 89410.6
86285.8 121774 99773.8
88958.6 174509 135765
91761.8 168774 146774
174825 117399 136033
169210 107774 136774
84970.6 139528 57105.4
87673.8 139774 44773.8
142966 194571 164901
149294 190774 169774
85283 123585 96665
90773.8 113578 95773.8
86812.2 162053 134705
85533.8 149774 129774
176423 110476 119678
176774 104254 109774
181451 154979 157641
177774 158774 171078
89529.4 175395 137317
95773.8 181774 145970
171999 119324 144634
165886 110774 146774
177134 133636 151440
173774 139578 167774
92154.2 111053 67765.8
96317.8 101774 60773.8
100730 178017 156832
101774 166774 165074
169187 115391 145618
163774 115114 155774
89863.4 115347 73871.8
94773.8 105582 78773.8
113283 186063 170278
113774 176886 178774
175269 107185 119431
169234 101774 127774
86290.2 150623 130283
86773.8 138774 125958
181559 167997 132275
177774 178774 140810
168231 126315 161791
160774 127774 175326
87422.6 140293 127380
92341.8 126774 127774
174922 106197 119357
169774 97113.8 117774
178877 157635 167047
174526 149774 173774
101212 168829 162412
99773.8 159774 161958
171318 99838.6 118249
171774 94181.8 106774
177968 159124 169904
175774 164774 175074
113548 181107 174865
108350 171774 172774
142400 194299 173198
143122 191774 186774
165993 126753 165852
168038 134774 172774
87809 118982 96255
94773.8 112774 109954
115639 196246 159427
125774 199814 165774
183875 157457 143969
181186 168774 149774
90688.2 114237 95802.2
97573.8 104774 94773.8
176654 177509 139317
171774 185258 144774
164860 122948 162948
154774 114774 163962
92684.2 114636 105844
98773.8 105574 104774
151334 193247 149117
158894 189774 160774
162043 128162 174091
159774 132514 184774
94602.6 107255 79165
99773.8 100398 85773.8
176861 105053 110191
177386 101774 102774
90423 117364 103111
91505.8 120774 115774
169985 97669.4 117494
164774 89597.8 113774
175383 152525 173115
169774 149774 185890
176082 162033 174215
169982 165774 187774
95622.6 103762 63781
101762 92773.8 64773.8
113677 177145 177823
113774 165774 183990
166611 91887.4 113816
164866 85773.8 104774
94817.8 112735 108861
101506 106774 114774
101605 167391 164275
107546 157774 173774
171385 94253.8 107568
170774 89589.8 99773.8
98593.4 98377.8 63147.4
101494 92773.8 56773.8
180878 167673 148756
177014 177774 152774
172505 166218 180146
168534 173774 183774
90866.2 130830 127656
99773.8 123774 139970
172251 183555 144421
165774 188034 152774
99289.8 101602 85249.4
106290 95773.8 94773.8
169153 102232 126766
163774 98773.8 131326
101390 99853.4 88106.6
108234 93773.8 85773.8
165388 99811.4 129958
160774 93773.8 127322
100487 107403 113037
107126 99773.8 113774
177359 101983 102907
177890 98773.8 94773.8
170729 151357 184022
165774 155774 197182
101748 93362.2 64334.6
107774 86169.8 64773.8
170544 90013.8 100028
169254 85773.8 91773.8
101200 106963 114253
103774 108774 125134
94098.2 129400 133237
96773.8 134226 143774
161459 94563.8 127144
156774 87773.8 120970
92361.4 127258 127443
97013.8 117774 125774
113608 167164 182321
112774 153774 183958
170060 150249 185329
163190 141774 190774
112819 156689 182790
111486 148774 178774
164241 86584.6 106235
157042 79773.8 97773.8
96718.2 132439 141769
101538 130774 149774
177633 174726 152768
171774 181258 162774
168945 170945 183614
159274 176774 193774
142617 193541 177271
149774 186774 181134
105507 95723.8 85377
109774 89029.8 75773.8
148249 188863 179057
156774 184774 175958
102384 107796 119258
110774 101574 123774
177711 98960.6 95416.6
177858 95773.8 87773.8
96136.2 102508 61047.4
97553.8 99773.8 51773.8
170095 87058.6 92909.8
172774 86773.8 83969.8
107586 103938 122058
110774 105774 133130
175791 176356 157587
175774 173774 167894
157619 88907 121282
153774 82773.8 111290
107547 87109.8 65075.4
117774 79013.8 67773.8
96757 133690 143172
96773.8 144382 151774
169506 86159.4 92114.6
161046 79773.8 87773.8
111422 83477 64921.8
115506 76773.8 58773.8
111886 151149 179979
115774 138774 183258
98071 125462 137950
103130 115774 135774
113052 147436 180962
110774 138390 173774
112787 154649 183607
117774 147774 193026
96767.4 140319 148505
101774 139774 158034
171878 180318 162353
164774 183998 169774
109562 105076 128923
118578 99773.8 132774
113724 166191 183489
117774 160774 193074
164261 82200.2 89423.4
164774 78773.8 79893.8
116278 149836 190200
120318 153774 197774
116391 79734.6 66215.4
123774 73005.8 63773.8
172857 87270.6 85516.2
178534 89773.8 77773.8
96763.4 137800 146479
91533.8 147774 142774
165687 80387 83274.6
172870 79773.8 74773.8
117325 148393 192178
120346 138774 191774
113709 102637 130694
117666 104774 140774
165306 78849.8 80350.6
165774 74361.8 72773.8
110293 101877 122650
120774 93773.8 122978
119730 140391 191155
121774 131774 186574
101692 139905 157967
105774 139774 165962
94035.4 141987 143963
90349.8 142774 137774
111871 139346 175015
114214 127774 168774
120161 139259 191588
125774 136230 196774
103896 139834 162284
103762 146774 166774
103235 139855 160989
108322 132774 163774
115326 104835 137139
113106 111774 145774
122743 137865 193973
125774 144418 202774
117608 104465 139480
125774 102342 144774
118271 100267 132829
125774 97773.8 137182
119660 94674.6 121696
128774 87729.8 118774
114333 110040 144423
117590 112774 152774
123123 92035.4 120585
123522 88773.8 112774
113223 111653 145257
108774 118218 147774
123449 103565 144181
129582 105774 153774
[...]
CELL_DATA 1581
SCALARS radius float
LOOKUP_TABLE default
2.122e-314
100
100
1.16074
1.16
0.10213
0.997755
0.824777
1.15837
0.156314
0.994812
0.0972217
0.993422
0.160339
0.0747042
0.821555
0.0793221
0.993253
0.503785
0.746999
0.819792
0.754167
0.246091
0.744951
0.0645614
0.502257
0.743319
0.114029
0.617382
0.558971
0.213974
0.48681
0.192148
0.139292
0.81717
0.174013
0.812837
0.205161
0.0616277
0.617178
0.741127
0.131289
0.112216
0.224986
0.133342
0.554478
0.280133
0.452246
0.239992
0.20133
0.810892
0.112661
0.300255
0.517152
0.421646
0.259792
0.168994
0.738187
0.713007
0.554748
0.551832
0.124948
0.1409
0.61389
0.198902
0.134534
0.143157
0.512168
0.0770583
0.124144
0.264834
0.128904
0.419379
0.106343
0.37015
0.248949
0.218092
0.339076
0.0884155
0.250464
0.73416
0.125747
0.245706
0.622326
0.455319
0.312822
0.632611
0.474289
0.0998069
0.469749
0.0623626
0.632409
0.63484
0.519066
0.0684027
0.454804
0.596936
0.33936
0.10756
0.208998
0.542411
0.184407
0.0594864
0.612164
0.063095
0.596701
0.249412
0.145173
0.433524
0.211048
0.214056
0.308197
0.15873
0.32706
0.288046
0.188639
0.0794589
0.621103
0.211674
0.174891
0.143347
0.207501
0.0911635
0.53265
0.467582
0.515982
0.481404
0.154111
0.103685
0.595971
0.220319
0.453004
0.246802
0.40503
0.597015
0.244799
0.257071
0.189074
0.397551
0.340268
0.0718081
0.286551
0.0651382
0.396967
0.517772
0.208219
0.436313
0.305473
0.0773138
0.512084
0.182647
0.204695
0.376039
0.143498
0.0929078
0.364397
0.589169
0.199534
0.366399
0.540001
0.242142
0.426651
0.127402
0.537626
0.500941
0.235744
0.0919008
0.338019
0.492354
0.185216
0.141761
0.431267
0.0929053
0.174255
0.134546
0.227418
0.167658
0.209124
0.0728137
0.588798
0.350969
0.138104
0.243706
0.281476
0.057195
0.426308
0.156796
0.533144
0.0576377
0.202298
0.0836335
0.254086
0.0480219
0.246195
0.371616
0.285763
0.120231
0.346202
0.206807
0.371235
0.143291
0.206611
0.053029
0.492149
0.486612
0.290937
0.0932095
0.360524
0.529038
0.136502
0.0704427
0.511639
0.584566
0.163487
0.194799
0.178732
0.0877024
0.240206
0.14252
0.175268
0.328909
0.239532
0.582521
0.127839
0.10833
0.490393
0.493181
0.231156
0.0771928
0.4279
0.0750093
0.191019
0.118932
0.233873
0.155051
0.367038
0.0831679
0.370223
0.115503
0.341862
0.145111
0.213533
0.0752241
0.284015
0.0862578
0.528272
0.452885
0.300247
0.13728
0.486781
0.128203
0.271846
0.305042
0.253978
0.0949525
0.47796
0.0612818
0.452511
0.317186
0.343956
0.283537
0.226438
0.290925
0.408237
0.0838906
0.33538
0.523105
0.162412
0.158219
0.316222
0.161257
0.289213
0.216133
0.57243
0.133179
0.114285
0.0669412
0.304397
0.0668902
0.213976
0.097626
0.258683
0.16223
0.21269
0.128447
0.566072
0.202596
0.16096
0.177162
0.265099
0.257459
0.180126
0.0830348
0.227528
0.568268
0.159542
0.0714325
0.289483
0.288547
0.199054
0.10816
0.331588
0.353476
0.18738
0.0745556
0.5226
0.111934
0.283793
0.121536
0.564199
0.0873753
0.280744
0.13721
0.403003
0.335819
0.184629
0.0836573
0.302276
0.295552
0.196232
0.44896
0.265398
0.15814
0.237258
0.0980825
0.252623
0.0845456
0.288747
0.165788
0.226144
0.271966
0.158186
0.13106
0.557819
0.0703686
0.225262
0.195914
0.254606
0.0797162
0.334315
0.0760143
0.39127
0.0658209
0.557513
0.434964
0.201672
0.0974568
0.267729
0.0761225
0.250145
0.511866
0.18962
0.0948992
0.188191
0.402383
0.410081
0.178705
0.257878
0.412197
0.230569
0.289164
0.150966
0.181701
0.270616
0.171836
0.28497
0.146708
0.203341
0.197573
0.248953
0.118093
0.555741
0.115447
0.214664
0.0809502
0.151149
0.353479
0.250579
0.434773
0.447235
0.231497
0.227487
0.122144
0.258971
0.0943368
0.310014
0.0867978
0.41091
0.08309
0.351942
0.261153
0.228842
0.108237
0.399755
0.131723
0.180868
0.151595
0.392352
0.0813733
0.40901
0.149854
0.319395
0.0994601
0.225208
0.115901
0.432011
0.0725167
0.186017
0.313245
0.205878
0.154394
0.397436
0.205055
0.209453
0.124822
0.239797
0.330032
0.322151
0.206968
0.279654
0.0930396
0.395729
0.421792
0.177446
0.112264
0.273489
0.0830162
0.44628
0.281035
0.341354
0.0755
0.304176
0.288258
0.211652
0.375794
0.168492
0.085992
0.278325
0.187371
0.222872
0.260357
0.218939
0.358325
0.307346
0.155237
0.243007
0.0949375
0.35609
0.0859512
0.170452
0.431482
0.15204
0.166053
0.290256
0.419122
0.188593
0.0841917
0.287876
0.178952
0.340338
0.266666
0.379514
0.202005
0.250447
0.0627796
0.265501
0.249805
0.202213
0.334679
0.258003
0.157534
0.226882
0.258384
0.198847
0.1113
0.217094
0.228452
0.189382
0.284067
0.244213
0.0972773
0.373609
0.0884462
0.28118
0.16588
0.215447
0.134297
0.211797
0.303571
0.268163
0.174039
0.283162
0.16833
0.23196
1.16026
0.124062
0.0640859
0.118078
1.15932
0.139896
0.129775
0.0994226
0.995121
0.19869
0.0653694
0.196303
0.177908
0.822009
0.1493
0.132059
0.0601949
0.186437
0.109343
0.126425
0.816677
0.207033
0.0894844
0.179295
0.116681
0.136325
0.0907168
0.12135
0.0682361
0.204532
0.178532
0.142042
0.164978
0.092008
0.502612
0.0962344
0.557036
0.121798
0.0959518
0.15336
0.744212
0.166893
0.122256
0.156909
0.233931
0.128096
0.500218
0.0959747
0.0793043
0.145937
0.126089
0.743745
0.0683057
0.162989
0.0709356
0.118111
0.485559
0.0960865
0.0921738
0.152502
0.120006
0.811964
0.147981
0.175386
0.616354
0.0979364
0.5489
0.172046
0.0516649
0.239191
0.0859838
0.235429
0.117645
0.176153
0.123505
0.184465
0.0703631
0.16803
0.274645
0.185202
0.0554714
0.107987
0.224674
0.119531
0.0553113
0.153437
0.109248
0.114303
0.0917162
0.158377
0.0870495
0.177762
0.0367081
0.142348
0.0414963
0.11245
0.146267
0.201751
0.141668
0.175102
0.101802
0.129773
0.0643373
0.165826
0.0870115
0.178565
0.612351
0.09792
0.711286
0.13783
0.11589
0.15954
0.0851889
0.13135
0.404416
0.19675
0.198737
0.501993
0.549425
0.129858
0.197087
0.20047
0.0936234
0.1481
0.079783
0.112999
0.132039
0.174509
0.0535202
0.172007
0.228176
0.126267
0.182532
0.120915
0.471246
0.105147
0.500009
0.114328
0.0904166
0.123403
0.109433
0.139054
0.533539
0.197497
0.0898927
0.190645
0.240199
0.118327
0.631461
0.104338
0.146136
0.143593
0.110905
0.185074
0.067442
0.205098
0.528761
0.148668
0.10694
0.194909
0.449594
0.1473
0.133499
0.163034
0.0604993
0.210013
0.054336
0.125602
0.151701
0.293153
0.122021
0.194243
0.0574759
0.151398
0.232149
0.233199
0.119035
0.201007
0.512671
0.137989
0.105225
0.146875
0.057445
0.197934
0.0748011
0.206801
0.591218
0.171281
0.287436
0.176799
0.141441
0.187299
0.106001
0.17145
0.735388
0.165806
0.0622741
0.182694
0.178914
0.189307
0.0821846
0.17067
0.120506
0.123462
0.134654
0.224003
0.095288
0.137596
0.146348
0.150901
0.176512
0.131137
0.394943
0.169174
0.185407
0.138451
0.332546
0.122662
0.0871637
0.219514
0.382879
0.153638
0.239172
0.214344
0.117374
0.149692
0.0697174
0.118154
0.127785
0.16718
0.0732501
0.203697
0.138837
0.141336
0.357957
0.112219
0.362589
0.121114
0.0789186
0.177647
0.0860111
0.130306
0.137458
0.139144
0.0871131
0.209436
0.0718875
0.17114
0.108172
0.178676
0.244041
0.198038
0.114158
0.192101
0.428736
0.111973
0.0608088
0.133181
0.144159
0.176045
0.119268
0.14912
0.102857
0.17419
0.355075
0.127911
0.0608164
0.139542
0.0832072
0.169618
0.125137
0.190011
0.0765092
0.129786
0.110498
0.144552
0.22384
0.173118
0.509559
0.117626
0.482374
0.145879
0.0686596
0.153786
0.136682
0.162698
0.0950032
0.119019
0.151582
0.218116
0.116524
0.19835
0.112281
0.285252
0.417175
0.159877
0.117582
0.154104
0.240388
0.135568
0.061988
0.140648
0.140754
0.142948
0.120154
0.172711
0.42486
0.118367
0.128628
0.178374
0.304437
0.150449
0.0788707
0.116927
0.325242
0.177034
0.156435
0.187088
0.0782863
0.175055
0.231991
0.134562
0.0736806
0.156997
0.158523
0.137428
0.0832993
0.17942
0.0631004
0.12289
0.131108
0.196121
0.132271
0.125356
0.108831
0.173905
0.252473
0.137512
0.155709
0.215215
0.0734449
0.154534
0.106891
0.162954
0.177084
0.15964
0.132361
0.120325
0.0843989
0.149683
0.0946633
0.167652
0.337121
0.133474
0.520397
0.121581
0.0625624
0.13273
0.0672035
0.196467
0.119421
0.154128
0.162463
0.159104
0.169939
0.169021
0.144046
0.165761
0.366738
0.122468
0.184443
0.182655
0.245159
0.194806
0.263238
0.122732
0.151864
0.159806
0.479206
0.129996
0.0729986
0.155791
0.321958
0.145575
0.0793557
0.211556
0.0568855
0.117231
0.291143
0.133663
0.0818119
0.158833
0.392224
0.172274
0.56022
0.155675
0.0913238
0.205724
0.231263
0.184319
0.148214
0.231436
0.0966297
0.136412
0.122958
0.178604
0.13453
0.230835
0.0880833
0.171267
0.312899
0.188805
0.103759
0.158684
0.0861173
0.146342
0.161903
0.208865
0.178395
0.186227
0.14996
0.179041
0.229804
0.163474
0.12676
0.217317
0.105941
0.168803
0.0881446
0.148479
0.169419
0.196034
0.340457
0.160444
0.110634
0.175184
0.191905
0.217582
0.164498
0.198372
0.165718
0.232686
0.117574
0.239885
0.185164
0.23793
0.118532
0.166651
0.150391
0.209513
0.405055
0.125265
0.149494
0.216362
0.14296
0.152044
0.0872569
0.190093
0.127308
0.227283
0.386761
0.136534
0.305719
0.158856
0.165727
0.193284
0.118241
0.183244
0.10171
0.183399
0.12851
0.200907
0.194101
0.186398
0.153267
0.203149
0.116411
0.192638
0.166636
0.189408
0.0867796
0.16044
0.100935
0.201329
0.193946
0.191791
0.151262
0.331151
0.262516
0.151384
0.437685
0.171415
0.181388
0.311915
0.0790561
0.310213
0.151558
0.297653
0.105625
0.19188
0.178878
0.245145
0.233378
0.239048
0.0750505
0.145682
0.11181
0.153812
0.165927
0.17
0.121845
0.17741
0.099479
0.168055
0.132601
0.163569
0.194733
0.202669
0.172495
0.313359
0.115433
0.188805
0.0865045
0.193233
0.292841
0.178184
0.171835
0.229579
0.329894
0.152103
0.0824465
0.225979
0.0866571
0.18313
0.361546
0.169732
0.1405
0.206193
0.187335
0.250167
0.117127
0.260498
0.157454
0.239708
0.118978
0.240854
0.235989
0.212249
0.102919
0.232512
0.0676883
0.0910628
0.0906226
0.125859
0.146875
0.0866669
0.0805481
0.113731
0.0436989
0.094185
0.82176
0.0795213
0.188506
0.0953211
0.0579461
0.12823
0.0624621
0.121124
0.063577
0.122793
0.126239
0.155389
0.10852
0.135249
0.099473
0.123454
0.821088
0.0980899
0.122675
0.126348
0.0943371
0.0988978
0.753797
0.0858037
0.0894107
0.743314
0.0531506
0.120078
0.501393
0.0867541
0.0432969
0.0886941
0.0549683
0.12278
0.120307
0.110978
0.0924344
0.109477
0.0602527
0.106099
0.742498
0.110759
0.742879
0.0896487
0.0636342
0.103262
0.0593987
0.135594
0.119758
0.122298
0.0567221
0.127661
0.0957682
0.117316
0.133915
0.14525
0.111321
0.177046
0.0739321
0.109811
0.0764028
0.117796
0.0690272
0.139856
0.155797
0.117284
0.811617
0.0882042
0.217605
0.102739
0.113023
0.129438
0.0510415
0.116344
0.0466575
0.103261
0.0571217
0.173052
0.126115
0.125291
0.51587
0.100865
0.553959
0.0899257
0.254084
0.104173
0.116069
0.153526
0.613185
0.0926912
0.15975
0.120147
0.11496
0.144874
0.159648
0.117557
0.173718
0.100941
0.0960588
0.129153
0.0609289
0.127564
0.126017
0.14562
0.366819
0.11071
0.179785
0.127196
0.0678246
0.128523
0.240398
0.115374
0.146009
0.158427
0.0892027
0.113961
0.0626564
0.107338
0.100458
0.611261
0.119366
0.153455
0.0639412
0.139236
0.621536
0.0971335
0.0596652
0.115864
0.472985
0.0957513
0.0724472
0.138891
0.0585503
0.142394
0.203846
0.130531
0.123631
0.183382
0.610431
0.0975813
0.18114
0.147138
0.0675929
0.124186
0.100005
0.172878
0.150177
0.157967
0.157718
0.151558
0.0990619
0.132263
0.0616207
0.113255
0.099625
0.179623
0.184013
0.123652
0.306113
0.184699
0.0971132
0.13162
0.451209
0.10326
0.0619617
0.118024
0.128769
0.14268
0.118063
0.15472
0.153713
0.0974842
0.128105
0.151887
0.132519
0.158389
0.111159
0.153988
0.0830019
0.12715
0.391502
0.116872
0.0773276
0.121481
0.163433
0.202603
0.069764
0.149059
0.0982929
0.194577
0.0834873
0.127486
0.101841
0.198217
0.0996494
0.132427
0.390954
0.140945
0.190253
0.154544
0.361596
0.103446
0.0651063
0.136153
0.0589014
0.147849
0.421069
0.141304
0.0895164
0.16037
0.0634715
0.136934
0.12024
0.133627
0.09339
0.146773
0.102281
0.188689
0.114993
0.14662
0.0952236
0.140325
0.146438
0.182179
0.0927999
0.126457
0.146999
0.166194
0.53205
0.0976374
0.210939
0.12231
0.10856
0.168299
0.0882732
0.131367
0.125427
0.156084
0.281036
0.100462
0.0612485
0.142188
0.0884604
0.157381
0.129209
0.144723
0.0445524
0.111982
1.14214
0.0677571
1.14206
0.14868
1.14122
0.142498
1.10099
0.125301
1.10045
1.10178
0.529938
0.127046
1.09988
0.138377
1.09915
0.109646
0.528369
1.00604
0.676576
0.130665
1.0053
0.0895293
0.676053
0.122456
0.526167
0.119116
1.00474
0.121186
0.524016
0.123521
1.00412
0.139093
0.674085
0.296929
0.490087
0.138444
0.286537
0.10632
0.488413
0.136647
0.672208
0.136547
1.00328
0.158004
0.482838
0.998637
0.240721
0.127469
0.670676
0.29561
0.442651
0.14011
0.668632
0.121864
0.998031
0.091911
0.236169
0.129144
0.667022
0.116778
0.289406
0.366609
0.334598
0.118033
0.362485
0.949599
0.516534
0.107557
0.949139
0.130504
0.22206
0.115979
0.514578
0.180836
0.662562
0.17667
0.26213
0.183382
0.315125
0.146019
0.354408
0.194577
0.256485
0.104922
0.482089
0.200419
0.946151
0.161444
0.239881
0.128866
0.479
0.221498
0.273356
0.0901555
0.194144
0.933054
0.326132
0.0972355
0.932702
0.147396
0.315771
0.48374
0.284626
0.0955591
0.661899
0.178453
0.470597
0.246271
0.309264
0.844223
0.59411
0.115679
0.310509
0.179782
0.657447
0.198955
0.28047
0.178693
0.258891
0.111317
0.843577
0.14435
0.466025
0.154266
0.590623
0.102226
0.656623
0.158051
0.586826
0.625435
0.337532
0.168414
0.621338
0.260431
0.274972
0.146871
0.242065
0.139422
0.842306
0.194323
0.454479
0.140422
0.584133
0.255134
0.606654
0.154116
0.234813
0.196624
0.422681
0.117237
0.841548
0.49196
0.781295
0.26604
0.464525
0.196551
0.576619
0.543861
0.313645
0.0986805
0.25562
0.152194
0.258459
0.185429
0.536578
0.106828
0.780629
0.130345
0.604642
0.326645
0.492745
0.165511
0.242698
0.175624
0.599662
0.242934
0.25467
0.563408
0.332601
0.237808
0.277648
0.266513
0.542784
0.134596
0.779293
0.111486
0.462375
0.108358
0.247956
0.436413
0.220741
0.103895
0.329186
0.152585
0.487819
0.197534
0.476774
0.197274
0.775056
0.196768
0.770805
0.157324
0.768615
0.172076
0.45429
0.115737
0.541024
0.400017
0.354019
0.2701
0.353844
0.682998
0.513581
0.162388
0.342243
0.238265
0.28082
0.128291
0.681485
0.187862
0.443318
0.203124
0.531306
0.167207
0.413772
0.228846
0.51676
0.284787
0.40006
0.27115
0.353283
0.448603
0.609316
0.174751
0.338414
0.135161
0.510441
0.12981
0.444951
0.259446
0.376517
0.397638
0.412369
0.190699
0.603025
0.197902
0.431498
0.140003
0.391767
0.282493
0.33497
0.503305
0.451088
0.198234
0.506847
0.127614
0.408254
0.143012
0.499427
0.426076
0.361446
0.193418
0.438909
0.229162
0.382609
0.254207
0.484567
0.195824
0.417612
0.24637
0.386815
0.29215
0.39065
0.262894
0.389697
0.156354
0.351417
0.314361
0.435703
