# vtk DataFile Version 3.0
Tree
ASCII
DATASET POLYDATA
POINTS 1582 float
162774 225274 273.8
162774 225274 10273.8
141774 225774 23773.8
138774 213262 31773.8
139364 217915 31273.8
133774 208070 52773.8
136345 212599 42883.8
152774 203970 56773.8
137251 214193 39401
112774 201930 45773.8
122075 206590 43352.2
117774 196774 67321.8
119064 199719 60131
137774 198774 75297.8
149738 204525 55123.4
162774 191298 71773.8
119967 201780 55097.4
102774 189998 60773.8
158689 195104 70925.8
163082 189774 87773.8
117172 197055 65817.8
108774 188054 82773.8
114653 194355 70904.6
125774 193978 88773.8
161548 192440 71519.4
173990 173774 71773.8
163424 189813 84065
173998 179774 93773.8
125291 194362 84649
143774 195998 93773.8
169243 179187 69864.6
171186 165774 58773.8
172566 175398 71201
177870 172774 83773.8
105316 191114 60921
87773.8 175246 72773.8
125629 194093 87536.2
121774 193998 102774
170603 169798 62101
176774 153170 67773.8
138229 195507 91036.2
140774 195998 109774
171000 165866 59490.6
171982 151774 51773.8
172091 180832 92692.2
180774 167974 104774
93913.4 181013 71097.4
87773.8 176774 90429.8
123239 194034 96983.4
107774 190550 101774
174429 159489 65618.2
180774 157774 81581.8
88772.6 175239 72467
79557.8 160774 74773.8
121704 194293 102244
116774 195998 116774
163185 189785 86661
157018 193774 99773.8
177347 158700 72961.4
182002 143774 78773.8
179730 148792 74874.6
180070 133774 68773.8
178915 167607 102404
183998 155774 109774
83059.4 166270 73897.4
81545.8 155774 61773.8
180847 163111 105204
182530 163774 121774
86569.8 175823 86781.4
79497.8 170774 98773.8
179489 138610 69063.4
176774 130774 55589.8
141079 195841 109098
144774 195998 128774
140634 196014 116990
130774 196774 127522
87412.6 176489 89335.4
90773.8 185774 104742
118071 196013 116044
115774 198002 130774
158083 192576 99217.8
153774 194054 112774
156790 193019 103285
166802 189774 114774
144725 195724 124929
154774 194002 130774
80608.2 162423 74511
75565.8 152774 86773.8
181320 145279 77604.2
183998 144774 95773.8
177655 131350 58133.4
177834 119774 47773.8
179896 135225 68860.6
183998 125774 80773.8
144889 195856 128633
145774 195982 141774
182391 157836 109683
183998 143774 125774
183307 148840 117595
183998 136774 116774
183569 146915 120703
183998 155774 135774
78441.4 156435 79539.8
77737.8 143774 79773.8
77570.6 154654 85585.8
77765.8 150774 108774
77949 147572 79703.4
82997.8 135774 67773.8
76167.4 153338 86417.4
77549.8 142774 93773.8
183499 143836 124308
181998 132774 133774
114979 197293 128477
105670 196774 142774
88348.6 180801 100099
83773.8 178774 118898
177709 127877 55025.4
184774 130774 37969.8
145225 195904 133627
129774 198022 143774
85146.2 179382 113258
89573.8 186774 120774
82725.8 136925 68117
86353.8 129774 58773.8
78083.4 150592 100658
80521.8 139774 108774
181755 163469 114152
177262 177774 121774
108898 196914 140198
110774 196774 151946
111695 197088 134806
99773.8 193866 135774
183711 152797 133525
182774 151598 148774
153285 193733 128728
169258 187774 130774
109911 196838 146542
103774 189322 152774
183055 151958 144199
178774 135774 151322
158077 191945 129342
163066 191774 140774
77801 144913 79752.6
81533.8 130774 86773.8
144514 196193 140562
138774 197774 162798
82916.2 136119 67876.6
87017.8 121774 69773.8
139373 197575 149598
131074 199774 153774
85283.4 178993 117590
88773.8 177774 133322
182448 136093 130934
180054 122774 125774
117163 196003 116555
101602 193774 117774
182133 133769 132922
176050 120774 138774
86609.8 178529 123568
84773.8 167774 129294
178203 138713 151409
171842 127774 159774
111007 196381 151278
115090 193774 163774
85826.6 130165 61156.6
89585.8 118774 57773.8
179907 123276 125590
178050 114774 121774
78638.2 150555 107384
83021.8 149774 123774
182013 164535 120086
180774 169974 128774
80540.6 148835 113561
83773.8 139774 119898
181085 127271 125806
181974 119774 113774
88156.6 176951 131091
89773.8 170006 141774
113865 194556 160025
108002 180774 167774
177324 123023 136354
173422 111774 132774
85361.4 168696 127652
84773.8 158774 129974
173750 131055 157264
169774 119774 152438
86195.8 129891 59488.6
87773.8 134750 46773.8
109761 184909 165449
100350 175774 158774
182520 152115 148198
179774 153774 163938
81191.8 140435 107577
85701.8 129774 113774
145396 196045 141410
153890 192774 150774
82067.8 132718 86205.4
88773.8 117518 94773.8
139259 197440 161051
141082 195774 175774
85152.6 125726 90147
84773.8 125566 99773.8
88588.6 177527 132653
95541.8 183774 142774
178254 115669 121824
175930 104774 114774
89128.6 120589 57707
93569.8 109774 50773.8
87227.4 123312 69575
93625.8 106774 71773.8
139293 197481 157615
147890 192774 164774
90816.2 116479 55072.6
93493.8 117774 42773.8
111320 188575 163388
115774 185318 174774
171698 129010 159162
162774 122774 165978
89067.8 171144 137782
88773.8 160774 139970
180612 169877 127268
177226 179774 134774
170427 121560 152557
166774 110774 143978
91642.2 114468 53783
95553.8 103774 60773.8
145757 193625 164101
149234 189774 173774
176155 135190 154103
173206 137774 166774
84013.8 140433 118955
88325.8 131774 123774
103173 178514 160777
101554 164774 163774
172809 112853 133697
166774 102774 131978
87687.4 119980 93385.8
94289.8 107774 88773.8
101123 175911 159095
95585.8 166774 153774
183550 155418 135427
182010 165774 142774
179369 152123 161375
175190 149774 172774
108529 182014 167077
111734 174774 176774
175230 105461 115680
170774 94773.8 109954
166879 125643 162843
163330 130774 175774
179652 153279 163169
175994 163774 173774
132817 199036 151892
122774 200002 150774
164662 124093 164535
159774 115090 159774
88447.8 118257 94357.4
91773.8 114774 106886
131597 199553 153209
124774 199946 163774
169026 105673 131431
167774 98281.8 123774
90509.8 116097 102125
96773.8 107590 103774
110773 176946 173865
107774 166098 173774
163510 128828 172749
157774 126774 179110
93604.6 108783 72366.2
99033.8 99773.8 75773.8
141532 194686 173862
144774 189986 185774
173189 137787 165574
169774 140774 176970
87924.2 133692 123760
93773.8 128774 132970
175720 104980 115046
176774 101658 104774
175764 162095 173469
172038 166774 181774
102849 166931 164495
104330 156774 169774
182137 163818 142190
179946 171774 152774
163248 130622 175491
162090 136774 184774
93555 110022 90579
101774 100290 92773.8
180794 167948 145549
176774 177974 145774
175700 150828 171262
170774 152774 183958
111499 174761 176130
113562 166774 182774
99037 103484 91053.8
102774 98773.8 85973.8
95445.4 104981 59166.2
102322 91773.8 62773.8
153379 192771 150017
161774 189026 158774
170545 95673.4 110336
164866 85773.8 104774
94894.6 110142 103279
100314 107774 115774
176879 176462 146273
169774 186514 149774
176083 101311 106567
173874 92773.8 97773.8
85958.6 130665 113221
91773.8 120774 118882
147078 192161 167777
156906 187774 168774
167198 98946.2 125001
161246 88773.8 117774
93581.8 128947 131983
99773.8 123774 139970
173824 94379 100288
169258 87773.8 98773.8
108833 168001 174358
109554 158774 177774
162623 133944 180504
155306 130774 187774
172167 166071 181099
165774 170774 192970
179591 171721 151389
175774 178774 156814
171510 153271 182928
167774 156774 194790
98688.2 108484 112025
106774 99773.8 113126
166943 103240 131530
159774 95541.8 130774
101653 100187 87497.8
109774 92321.8 90773.8
93716.2 128826 132674
96773.8 133774 143326
168989 88687.8 98819.4
161774 81601.8 96773.8
100167 95836.2 60391
104118 87773.8 54773.8
171213 91305.4 99495
171266 87773.8 90773.8
102437 99197.8 86431
107774 91989.8 78773.8
102438 92590.6 62449.4
109774 85129.8 67773.8
168203 168987 188459
160774 178042 187774
100438 107856 115262
107122 105774 125774
109530 159725 176877
110774 147774 177958
104431 102123 111711
110258 94773.8 105774
109547 159059 177505
113562 157774 185774
102429 107875 119712
101774 112010 126774
149287 189686 172995
153774 184542 179774
107573 87368.2 66176.6
111774 80773.8 61185.8
171241 89398.6 94785.4
177774 94773.8 86885.8
165301 88646.6 107001
153774 81545.8 106774
96915.4 132471 142335
100774 134774 151962
171259 88261 91977.4
164774 81665.8 87773.8
94000.2 108586 57120.6
98317.8 97773.8 49773.8
176104 177149 156631
170774 180774 165970
162322 83227 96906.2
151774 79545.8 93773.8
98381.4 133346 145993
96773.8 141774 149966
107107 105775 124906
113774 102774 131334
111559 149358 178681
115002 139774 181774
165753 170562 191494
156774 175774 198862
111009 148249 178175
110774 139774 173970
102416 111410 126469
103130 115774 135774
113456 157345 185223
117774 154774 193258
171264 87920.2 91135
174774 85773.8 79289.8
110514 82752.2 62683
121598 74773.8 64773.8
155684 188618 167704
163774 185774 166094
97008.2 141597 149566
95773.8 150774 153078
175925 163270 173682
172010 173774 174774
111241 103914 128891
118774 96773.8 125962
158313 81828.2 95715.8
156774 79541.8 87773.8
100548 134948 151612
103774 138774 160974
166385 82901.8 87705.8
163774 77773.8 79181.8
113418 144183 180351
117774 142774 190806
113014 103116 130601
113774 107146 139774
116119 143309 186833
121462 134774 188774
115309 100058 127309
114674 95773.8 118774
171949 171918 174759
164026 180774 176774
89233 162174 139772
91485.8 150774 142774
110945 140662 174098
111538 129774 166774
164557 79312.2 81739
171774 78213.8 72773.8
96861.4 132966 142712
91501.8 141774 138774
114769 140622 180768
119106 129774 179774
102365 138550 157949
101774 146738 162774
163753 77858.2 79477.4
160774 72773.8 71977.8
168828 77836.6 75249
168774 72773.8 68041.8
118050 142907 190237
125774 141774 201218
113424 105292 135554
123586 102774 142774
114254 106577 139079
118278 108774 147774
118376 97206.2 125815
126578 89773.8 120774
117286 104335 138298
124774 97461.8 134774
115783 107411 142383
111774 114342 147774
124117 92003.4 122286
122774 89481.8 113774
82820.2 148960 121996
86365.8 145774 130774
122701 103335 142545
129418 103774 149774
123321 102942 142705
133590 98773.8 142774
126471 90319 120985
134774 85545.8 116774
103592 115217 135036
105598 118774 143774
127794 104265 148942
130774 108126 157774
[...]
CELL_DATA 1581
SCALARS radius float
LOOKUP_TABLE default
2.122e-314
100
100
1.15755
0.128498
1.15683
0.831512
0.173443
0.83402
0.988882
0.0988698
0.98791
0.733377
0.224771
0.0756271
0.829624
0.740348
0.822152
0.477818
0.770537
0.0637407
0.733216
0.211454
0.725472
0.476504
0.0964467
0.300843
0.75174
0.612838
0.530244
0.157905
0.46782
0.127018
0.123594
0.148877
0.819884
0.0619657
0.612627
0.214528
0.452272
0.0952132
0.525261
0.204893
0.108334
0.0739774
0.749812
0.765763
0.464471
0.202109
0.605205
0.442004
0.158508
0.0594448
0.763352
0.053309
0.604336
0.0604792
0.300026
0.42107
0.227005
0.378663
0.273064
0.14554
0.746337
0.119653
0.76237
0.731838
0.270522
0.406282
0.290681
0.193798
0.356831
0.0592245
0.519506
0.507741
0.210383
0.0652527
0.398377
0.583472
0.269379
0.263034
0.194989
0.177396
0.232795
0.461953
0.318519
0.759736
0.166045
0.138358
0.243932
0.336688
0.149995
0.0876269
0.187632
0.047087
0.46179
0.730934
0.113177
0.726105
0.171184
0.540967
0.60778
0.481089
0.689063
0.176736
0.473003
0.615443
0.453702
0.0624589
0.174097
0.0723204
0.540535
0.0806142
0.582959
0.107337
0.395762
0.155941
0.298865
0.441278
0.232377
0.368408
0.212004
0.287107
0.400056
0.427732
0.302097
0.241414
0.163248
0.571512
0.151129
0.575013
0.174815
0.560156
0.357932
0.090712
0.316048
0.566429
0.154468
0.4425
0.446672
0.253538
0.236885
0.0643608
0.615208
0.244442
0.414709
0.0515617
0.286551
0.260239
0.369598
0.0856448
0.366859
0.364427
0.476237
0.0512391
0.268759
0.360239
0.118162
0.316055
0.252925
0.430072
0.187475
0.0644599
0.56615
0.188273
0.385644
0.463503
0.119173
0.0756603
0.426941
0.217359
0.156059
0.39881
0.223957
0.466115
0.188913
0.166872
0.299719
0.560565
0.163033
0.141591
0.352795
0.105605
0.207918
0.28652
0.342299
0.1363
0.16059
0.507677
0.345398
0.0661122
0.439725
0.27645
0.15087
0.0618705
0.243113
0.0773643
0.611069
0.246063
0.206022
0.605243
0.174476
0.0774789
0.161108
0.0706221
0.462956
0.0843276
0.378294
0.0822863
0.280228
0.287012
0.293456
0.365936
0.172513
0.556187
0.134701
0.327705
0.131975
0.268359
0.17297
0.144899
0.193338
0.175805
0.236329
0.116684
0.361937
0.110114
0.288195
0.399224
0.251555
0.0745702
0.397939
0.243758
0.279777
0.170831
0.334053
0.582066
0.272037
0.147038
0.224432
0.0610889
0.353941
0.376452
0.307232
0.0814317
0.506978
0.419875
0.293191
0.187167
0.30594
0.0730732
0.375532
0.148254
0.243096
0.118795
0.169622
0.0654644
0.58179
0.226349
0.140426
0.264319
0.216122
0.575387
0.185952
0.183439
0.498843
0.167227
0.277201
0.161448
0.240175
0.122753
0.235426
0.0941779
0.236068
0.0886047
0.396469
0.0605728
0.419454
0.336183
0.23559
0.115083
0.261804
0.0862539
0.352225
0.0777994
0.275143
0.097246
0.261544
0.290077
0.259959
0.145183
0.288545
0.148617
0.142443
0.119166
0.244428
0.0952983
0.350819
0.15048
0.222138
0.0854449
0.281573
0.573021
0.132779
0.14931
0.22935
0.0943153
0.417859
0.0829387
0.266843
0.206276
0.247491
0.178707
0.233674
0.14645
0.384697
0.111001
0.411269
0.0965278
0.497635
0.207049
0.228645
0.0865813
0.334258
0.08817
0.287336
0.172723
0.227822
0.192555
0.565679
0.0831856
0.211934
0.179658
0.206492
0.0596228
0.384219
0.0901457
0.253518
0.155204
0.340386
0.257262
0.37453
0.0856115
0.172929
0.0868356
0.338492
0.301575
0.214856
0.0621789
0.563759
0.292724
0.461282
0.117751
0.155968
0.0657261
0.291615
0.551302
0.226478
0.105178
0.196726
0.319654
0.18293
0.16651
0.363221
0.133799
0.257236
0.366823
0.169986
0.251577
0.317471
0.353147
0.149945
0.102328
0.274278
0.120978
0.243981
0.291818
0.290474
0.0731978
0.550872
0.352128
0.379117
0.110528
0.296543
0.154179
0.341986
0.0807386
0.223005
0.0867744
0.279026
0.0745925
0.249371
0.136139
0.311201
0.135203
0.199785
0.0857519
0.273673
0.0697896
0.233531
0.447417
0.426538
0.189804
0.197345
0.0796454
0.289826
0.121405
0.311439
0.280139
0.319143
0.443616
0.131299
0.179386
0.253093
0.415748
0.179064
0.111276
0.224786
0.110046
0.262043
0.0946171
0.316798
0.225037
0.265955
0.0889822
0.161435
0.102127
0.315619
0.208791
0.247948
0.0931005
0.219594
0.187488
0.23034
0.0979102
0.248112
0.283944
0.40085
0.0846326
0.281415
0.0723715
0.415016
0.385107
0.193939
0.137864
0.269923
0.149942
0.408386
0.0914016
0.218763
0.211738
0.362467
0.0671125
0.209466
0.077881
0.399282
0.0997814
0.216136
0.350252
0.16696
0.100532
0.265192
0.298905
0.333074
0.168847
0.279744
0.323977
0.207718
0.150337
0.322534
0.400267
0.158502
0.122452
0.265245
0.264109
0.209066
0.206633
0.291346
0.189103
0.300896
0.148249
0.181026
0.163305
0.241401
0.100055
0.297162
0.239913
0.260273
0.231897
0.23969
0.0667214
0.122198
0.0893482
0.988639
1.15658
0.0992055
0.0843777
0.831222
0.123344
0.13635
0.0713807
0.114797
0.0964675
0.11786
0.830086
0.123325
0.987004
0.138404
0.0888961
0.220037
0.188646
0.157941
0.065948
0.133222
0.828262
0.141061
0.100337
0.724236
0.827473
0.093989
0.127443
0.166834
0.147067
0.768747
0.731411
0.142675
0.0788668
0.139081
0.0937721
0.475291
0.767469
0.131264
0.0440641
0.128114
0.174654
0.160404
0.129828
0.103585
0.526302
0.0977323
0.473742
0.101519
0.750052
0.125163
0.818944
0.123751
0.149939
0.125077
0.0873785
0.151248
0.0781245
0.117589
0.527423
0.133263
0.059931
0.118706
0.0947282
0.748687
0.763472
0.158988
0.749192
0.101441
0.103295
0.1314
0.170861
0.188612
0.105754
0.17831
0.189935
0.11197
0.521192
0.136765
0.604474
0.092912
0.45082
0.2047
0.122591
0.189074
0.519763
0.105102
0.39896
0.152708
0.0628145
0.141531
0.37495
0.116508
0.602016
0.1363
0.144429
0.155313
0.0747428
0.149314
0.0561486
0.193425
0.257948
0.147325
0.0590295
0.17288
0.743957
0.158269
0.11784
0.247318
0.28187
0.129393
0.0735088
0.1662
0.0820521
0.125565
0.110514
0.175007
0.237841
0.118719
0.264099
0.111253
0.159173
0.14742
0.0540907
0.164109
0.0692142
0.132325
0.202991
0.172016
0.346333
0.129933
0.225921
0.221475
0.294769
0.111736
0.0661912
0.160439
0.167361
0.147579
0.0840207
0.149945
0.0709946
0.22356
0.12625
0.221893
0.19918
0.112127
0.136873
0.144518
0.729263
0.138786
0.165374
0.165146
0.101885
0.145372
0.161923
0.133145
0.1378
0.202037
0.444278
0.178624
0.063285
0.175936
0.0838739
0.127715
0.11356
0.213332
0.104136
0.150273
0.0853088
0.197839
0.312395
0.197296
0.141831
0.174147
0.390464
0.105679
0.354547
0.108821
0.58035
0.13835
0.21594
0.21086
0.208215
0.153107
0.605158
0.142483
0.198626
0.167647
0.128143
0.20662
0.0883337
0.166215
0.170086
0.172678
0.309303
0.125535
0.538793
0.115045
0.105596
0.118346
0.0943144
0.141699
0.121825
0.411174
0.570232
0.107763
0.290683
0.144363
0.12123
0.170544
0.0765553
0.144275
0.166865
0.124782
0.12594
0.242725
0.0903704
0.206383
0.0823683
0.159888
0.132968
0.13339
0.103192
0.614239
0.119657
0.153674
0.440223
0.109996
0.167795
0.204628
0.112631
0.382414
0.0878244
0.200559
0.216629
0.1623
0.265111
0.169716
0.162596
0.164999
0.0457447
0.116882
0.558808
0.11819
0.0493957
0.159017
0.33136
0.168954
0.610038
0.104847
0.191933
0.193364
0.435065
0.113932
0.421085
0.146726
0.153901
0.164137
0.262377
0.157985
0.116292
0.191253
0.0800714
0.151939
0.0653186
0.15946
0.0691001
0.135878
0.117597
0.152531
0.113449
0.151832
0.0766691
0.170943
0.0928608
0.14142
0.348326
0.118105
0.269488
0.115887
0.0696227
0.139329
0.601235
0.163567
0.0957336
0.147012
0.06832
0.167108
0.0901504
0.147523
0.0605964
0.143525
0.33469
0.137784
0.134219
0.139525
0.133599
0.187613
0.0895911
0.231957
0.119267
0.148861
0.157423
0.19743
0.240962
0.124451
0.136202
0.206282
0.122488
0.175323
0.305675
0.205797
0.0921606
0.165445
0.115681
0.183189
0.296161
0.138539
0.0874138
0.137166
0.141811
0.180961
0.0756767
0.143809
0.371015
0.123603
0.0909462
0.159669
0.0854173
0.17195
0.26595
0.109735
0.23364
0.18417
0.0570649
0.139323
0.088237
0.200242
0.0981042
0.15304
0.0753463
0.142619
0.133168
0.216292
0.30031
0.12421
0.0811211
0.237049
0.248756
0.129564
0.143001
0.172183
0.0739009
0.138497
0.14644
0.194244
0.269016
0.134461
0.18861
0.185073
0.155417
0.211058
0.0769842
0.123522
0.347537
0.119854
0.253526
0.116847
0.206597
0.208978
0.284172
0.131135
0.257015
0.191712
0.162993
0.197758
0.115036
0.204851
0.0675529
0.182932
0.218597
0.167669
0.133097
0.155552
0.106222
0.201679
0.111706
0.228474
0.112962
0.224484
0.268777
0.142726
0.116724
0.176043
0.158984
0.190772
0.0806142
0.16666
0.134299
0.185623
0.148536
0.205483
0.0586062
0.152728
0.278946
0.126373
0.17573
0.119646
0.413947
0.126622
0.564011
0.116891
0.114143
0.184171
0.174794
0.186474
0.378608
0.134793
0.144124
0.186869
0.109099
0.170406
0.182981
0.187888
0.138388
0.210115
0.181392
0.222755
0.281796
0.134288
0.166809
0.188247
0.173606
0.167342
0.0581959
0.151364
0.151761
0.174453
0.157446
0.159731
0.0911664
0.175048
0.15397
0.194895
0.157443
0.208986
0.178973
0.272991
0.199819
0.233035
0.206629
0.225864
0.158362
0.205542
0.276451
0.150088
0.109611
0.216909
0.124923
0.188839
0.183465
0.288303
0.161524
0.224357
0.235316
0.20562
0.0631244
0.126243
0.127418
0.191828
0.188961
0.258214
0.0936612
0.218778
0.148745
0.175468
0.319587
0.194479
0.145771
0.241693
0.156104
0.196213
0.302062
0.161772
0.21005
0.181773
0.123672
0.15673
0.166901
0.191216
0.123237
0.176346
0.116308
0.18732
0.127698
0.191471
0.20121
0.178243
0.153452
0.154884
0.0701877
0.149922
0.146484
0.229578
0.130654
0.171727
0.391646
0.130981
0.171378
0.171717
0.0794005
0.160746
0.226635
0.185206
0.162143
0.243216
0.0662357
0.278501
0.205423
0.215391
0.098217
0.201575
0.154124
0.220537
0.126664
0.269478
0.122522
0.260756
0.135344
0.188023
0.14186
0.245934
0.105782
0.196945
0.208949
0.249907
0.13056
0.237414
0.105076
0.23276
0.155606
0.240229
0.0983946
0.200082
1.15736
0.0914199
0.0694346
0.114215
0.0782976
0.988475
0.164006
0.0930681
0.830993
0.0780294
0.829833
0.0805998
0.98824
0.0882859
0.0961769
0.0995312
0.102977
0.141745
0.075506
0.13421
0.827877
0.0925385
0.0935052
0.125767
0.106276
0.105195
0.821517
0.0791041
0.0704868
0.117906
0.821762
0.0924676
0.0740776
0.161816
0.0553744
0.089932
0.723836
0.0856533
0.112343
0.141268
0.060709
0.138913
0.110516
0.110261
0.0818393
0.119665
0.751212
0.0963828
0.087004
0.126452
0.0651118
0.118895
0.11888
0.158597
0.724877
0.0978632
0.119119
0.120958
0.08264
0.111773
0.0961722
0.146268
0.0725012
0.114828
0.107497
0.140051
0.524312
0.0922196
0.0810778
0.122398
0.448697
0.129595
0.0891211
0.113669
0.0645286
0.141955
0.0468343
0.105334
0.0892282
0.148459
0.0924266
0.135403
0.113589
0.136927
0.102077
0.121576
0.129661
0.185639
0.107142
0.132595
0.748177
0.0949781
0.0864486
0.124119
0.0840443
0.116624
0.175144
0.100822
0.0576237
0.128864
0.0581874
0.113864
0.115231
0.153784
0.352325
0.119338
0.0864272
0.124325
0.0883894
0.163856
0.234756
0.1164
0.0942823
0.13313
0.101617
0.137287
0.0984007
0.1538
0.255932
0.138366
0.0558731
0.125823
0.0609089
0.140818
0.126638
0.178763
0.0648493
0.105582
0.114597
0.119323
0.0863051
0.12544
0.115016
0.156574
0.083143
0.127533
0.0368873
0.155369
0.128656
0.136766
0.099172
0.140528
0.073784
0.143791
0.0899185
0.135489
0.688593
0.0874411
0.128971
0.169274
0.114894
0.122863
0.136577
0.160266
0.188183
0.116541
0.119942
0.158569
0.0948382
0.14833
0.0923369
0.154901
0.116094
0.102707
0.137597
0.171846
0.201114
0.116334
0.268905
0.193544
0.0861215
0.143425
0.126084
0.144416
0.133743
0.175916
0.393027
0.108475
0.0862421
0.133336
0.154446
0.116784
0.129511
0.129629
0.117382
0.115516
0.13662
0.167508
0.116467
0.14631
0.148153
0.177254
0.0919836
0.167098
0.0568102
0.113611
0.408391
0.111927
0.0836239
0.13215
0.128072
0.193762
0.111842
0.117062
0.112517
0.44428
0.142428
0.161102
0.362795
0.117517
0.282573
0.0988677
0.365717
0.116318
0.24352
0.120249
0.0592998
0.120148
0.090751
0.155288
0.0955012
0.613468
0.0627857
0.136111
0.0617866
0.147334
0.0759579
0.155264
0.437654
0.106145
0.111997
0.131633
0.611482
0.13075
0.127745
0.169367
0.379685
0.105932
0.100133
0.157197
0.565125
0.0994796
0.0915205
0.113669
0.0883721
0.153049
0.07007
0.125032
0.290444
0.134314
0.0845361
0.156294
0.441633
0.115929
0.0841679
0.134116
0.130945
0.134281
0.101895
0.128871
0.101055
0.183688
0.148105
0.104079
1.13808
0.091807
1.13788
0.152128
1.13697
0.141832
1.0939
0.165405
1.09264
0.163654
1.09142
1.0947
0.54053
0.158734
0.535928
0.067218
1.09133
0.146361
1.09045
0.105352
0.534567
0.684139
0.992083
0.118337
0.682956
0.131478
0.531903
0.990129
0.17925
0.151616
0.680457
0.122013
0.529754
0.11791
0.989571
0.495392
0.300348
0.125532
0.679029
0.148416
0.676658
0.127271
0.492576
0.140175
0.988633
0.134888
0.987795
0.138077
0.674736
0.163308
0.486518
0.183239
0.670201
0.126703
0.9871
0.0949959
0.669564
0.118576
0.668322
0.332025
0.428279
0.133835
0.986279
0.106274
0.328356
0.981594
0.238734
0.19752
0.662521
0.225934
0.406201
0.0801834
0.173734
0.881217
0.639467
0.0904669
0.880899
0.128537
0.292286
0.113334
0.286492
0.185908
0.307151
0.113027
0.403263
0.621032
0.280075
0.124685
0.880065
0.176898
0.877677
0.0954795
0.661859
0.257476
0.870227
0.137574
0.222415
0.260795
0.363024
0.223747
0.260982
0.206836
0.201819
0.132858
0.618998
0.155649
0.270278
0.089672
0.195737
0.129448
0.869272
0.135717
0.356587
0.245274
0.650435
0.170711
0.61464
0.612337
0.753172
0.118283
0.610862
0.114632
0.236626
0.120491
0.272435
0.253182
0.307628
0.380714
0.561486
0.192368
0.604436
0.102963
0.603438
0.111552
0.377495
0.319407
0.623675
0.0909995
0.316926
0.274262
0.605469
0.167595
0.249401
0.166232
0.750463
0.146497
0.600546
0.12545
0.265218
0.142647
0.370579
0.226867
0.339743
0.126317
0.559347
0.122465
0.749375
0.594971
0.224714
0.535721
0.397569
0.188424
0.527836
0.165088
0.301229
0.23566
0.242416
0.156926
0.555199
0.580002
0.24933
0.128676
0.393024
0.151156
0.576559
0.0818446
0.221035
0.128666
0.748108
0.183124
0.520384
0.303408
0.320035
0.152266
0.745999
0.110366
0.241903
0.244382
0.50176
0.248809
0.287695
0.263294
0.476326
0.540882
0.32212
0.162135
0.287116
0.139149
0.55227
0.151223
0.471191
0.118964
0.729162
0.139254
0.537788
0.189493
0.296153
0.730217
0.295476
0.276812
0.436912
0.169343
0.726105
0.519368
0.30491
0.166143
0.306656
0.192364
0.355777
0.184695
0.7221
0.244659
0.520349
0.183436
0.511626
0.430513
0.378283
0.133768
0.296075
0.373614
0.314985
0.350443
0.693466
0.157486
0.27974
0.117587
0.345974
0.20766
0.509083
0.17252
0.421073
0.252539
0.682118
0.145624
0.679898
0.386453
0.635436
0.206943
0.319288
0.215217
0.35347
0.308383
0.356557
0.251002
0.487872
0.175024
0.374095
0.279803
0.312262
0.132069
0.633529
0.191603
0.627632
0.190373
0.599401
0.276724
0.456182
0.54201
0.382872
0.285256
0.514278
0.605735
0.292342
0.197448
0.3645
0.344468
0.456519
0.20735
0.441431
