# vtk DataFile Version 3.0
Tree
ASCII
DATASET POLYDATA
POINTS 1582 float
162774 225274 273.8
162774 225274 10273.8
141774 225774 23773.8
145774 214254 30497.8
142974 222318 25791
122774 207918 42773.8
144934 216673 29085.8
148774 205814 58773.8
128958 210525 42533.8
121774 200774 61325.8
126228 206820 49674.6
109594 198774 49773.8
123110 202588 57830.6
136774 198774 74025.8
151214 205637 52633.8
161878 192774 70773.8
122175 201318 60277.4
116226 192774 75773.8
114321 200257 51559
101774 189254 62773.8
118011 195337 71125
126774 193998 85773.8
160187 194930 70849
168026 185774 91773.8
161371 193421 70796.2
173782 174774 70773.8
116761 193543 74379
101774 185230 82773.8
122041 194721 77863.4
113774 190022 91773.8
103453 190477 59885.8
89573.8 176774 63773.8
126937 194531 84965
139774 195998 99773.8
167478 186286 87104.2
179230 171774 98773.8
170432 175981 69381
176002 157774 65773.8
104000 186179 80227.4
88773.8 175978 80773.8
166339 182191 67524.6
169026 166774 51773.8
118169 192606 88172.2
119774 194046 108774
173492 163166 65216.2
172002 150774 52773.8
91871.4 177163 79646.2
81533.8 164774 73773.8
115175 191445 91400.2
107774 190774 102226
139586 194973 97275
153774 194014 107774
175010 158144 65629.4
178058 140774 66773.8
172777 175136 70355.8
181774 159774 83661.8
176461 173114 98399.4
182774 159974 110774
87116.2 171464 76945
78773.8 163890 86773.8
83946.2 168586 80679.8
82773.8 174774 97573.8
109994 190975 98978.2
95773.8 185222 97773.8
118140 194349 106331
115774 196774 123594
117430 195076 111510
130774 195998 120774
108440 190834 101251
102774 193774 114750
129411 195749 118833
146774 195998 124774
83765.8 165551 74017.4
80329.8 149774 65773.8
177335 143364 65457.4
178774 125774 59577.8
167415 186496 90838.6
165970 188774 104774
162374 192337 75725.4
155078 193774 88773.8
177841 141551 66379
183998 130774 79773.8
178860 168121 103102
183998 152774 96773.8
181889 160465 110102
183998 147774 120774
178212 128595 58803.8
178002 120774 51773.8
100040 186948 98135
87773.8 185202 111774
80548.2 164073 84433.4
75561.8 150774 88773.8
82484.2 171488 93231.8
77773.8 166774 108794
182690 155643 114157
183998 158774 131774
141565 195923 122991
145774 195982 141774
116221 196765 122596
115774 199986 139774
77456.6 155827 87124.6
78773.8 144226 77773.8
182354 153765 97958.6
183998 138774 93773.8
167824 186814 100129
174774 181774 114394
79187 168188 104125
77673.8 151774 108774
178115 124997 55569.8
180774 128774 40061.8
143164 195945 130129
130774 198002 140774
79587.4 145660 78434.2
83561.8 132774 66773.8
183435 149057 117929
183998 132774 120774
146256 195654 124847
159074 193774 130774
183829 148159 119920
183386 139774 136774
183200 140778 132083
181202 130774 135774
183389 142992 128435
183998 148774 139774
114562 197989 135022
105998 193774 148774
76130.2 152290 88279
78161.8 141774 98773.8
78790.6 152633 107938
80365.8 140774 109774
183833 148473 137552
183998 157774 145774
172689 183286 110114
167774 189226 122774
90945.8 184633 110268
86773.8 177774 127322
143881 196236 139798
138774 197886 156774
115458 197328 128312
98773.8 193774 134882
182770 139929 135967
179774 136654 150774
183074 133882 120931
181182 122774 123774
105114 195125 132385
95773.8 191994 123774
77064.6 147453 93106.6
79773.8 132766 88773.8
181121 132075 134803
176774 120774 135958
109515 194078 147173
108774 190042 158774
179983 136360 146011
173774 126366 153774
107053 193865 148293
100774 184774 151962
83962.2 133257 68265
89533.8 119774 58773.8
145206 196058 141181
161982 190774 145774
183935 154239 142649
181774 150774 156794
88025.4 179832 122206
81773.8 165774 123042
86079.4 128134 64658.2
87601.8 129774 52773.8
139021 197605 150972
127774 200002 157774
79518.6 158781 108261
82773.8 148774 121958
138580 197787 156423
136774 197886 168774
85444.2 129671 65740.6
88361.8 116774 71773.8
87817.4 177983 126596
89669.8 171774 140774
182675 158606 120820
180062 170774 127774
80277.8 142700 108578
82773.8 131658 104774
181216 124369 122866
177774 112746 122774
80339.4 141351 109415
84773.8 138774 119958
108554 189721 156622
105774 179966 165774
175637 129364 151445
171774 117774 145998
88018.6 174317 131569
85681.8 163774 134774
174333 127265 153075
167774 125774 163990
81797.4 151776 117849
83553.8 156774 127774
176840 121590 134977
172042 110774 133774
82799.8 132765 104541
87773.8 118270 95773.8
101057 193375 134493
95609.8 186774 139774
179278 117048 121413
177946 107774 112774
89162.6 121051 58822.6
93545.8 112774 47773.8
102049 185549 151649
97773.8 172774 156802
179303 136657 150266
175774 137578 161774
89422.6 120157 58788.6
93657.8 106774 61773.8
108708 189945 158128
116774 187774 173322
181937 152549 154259
178774 156774 165970
86657.8 128757 60142.2
85449.8 142774 54773.8
170655 185908 119010
173258 183774 134774
87420.2 120431 95357.8
90773.8 113566 86773.8
83499 154325 125420
87553.8 151774 135774
137316 197856 165069
146862 191774 174774
86166.2 137868 55392.6
87545.8 142774 45773.8
129411 199328 155657
117774 199814 155774
173941 126636 153564
165318 117774 156774
89223.4 117766 70963
94773.8 105578 75773.8
145603 196005 141596
150774 192774 155954
179500 154455 162544
176050 150774 170774
83443.4 139547 116795
89509.8 127774 120774
114354 188425 168764
112774 177774 175970
168626 127091 163237
163322 128774 173774
86521.4 153507 133270
90317.8 157774 143774
142471 194572 170309
139774 194526 181774
172382 111537 133039
167774 101138 129774
87667.8 118918 95649
94349.8 110774 103774
99970.2 176685 156270
102774 168774 165886
183979 156713 144837
181978 167774 142774
175783 137843 160891
171774 139578 171774
90223 158088 142653
94317.8 163774 151774
169156 104257 130753
171418 99773.8 118774
178584 156291 165624
174774 161774 175978
101552 170283 162225
101058 159774 163774
170599 100005 120748
169930 92773.8 109774
176253 160695 172045
175814 167774 173774
112439 178382 173963
109774 167774 177038
170184 95521.4 113944
175774 98741.8 104774
90741.4 115172 99386.6
96773.8 105574 94773.8
173399 183166 133791
175994 179774 144774
167010 119109 155207
160774 110222 151774
87689.8 131306 119580
89773.8 120774 112886
140583 194539 178335
145978 188774 185774
165825 118175 156304
157270 116774 165774
176143 151628 170232
170066 149774 182774
93809 108537 62498.6
99037.8 97773.8 67773.8
151213 192721 154417
156774 189818 162774
164431 129019 172469
161014 133774 184774
93597.4 112173 103498
97997.8 109774 112774
84689 138950 119904
89773.8 136774 132902
163655 128847 173382
155378 124774 177774
96632.6 102725 65347
100318 93773.8 57773.8
88963.8 128833 120416
97461.8 122774 132774
163836 131949 177119
166774 140774 181958
96803.4 106602 94569.8
103774 98277.8 88773.8
101206 162927 163309
106774 156774 171978
183059 161801 143888
179990 169774 154774
174861 161503 175624
170010 163774 187774
93527 126499 128020
95457.8 130774 136774
170166 101280 123750
162774 91453.8 118774
172629 162548 181213
168774 173318 183774
111620 171915 176955
114774 164774 185890
170318 93830.2 110361
171774 90309.8 98773.8
97266.2 109682 109667
103774 103122 113774
174495 181611 141910
171774 184414 151774
170046 93090.6 109950
161970 84773.8 105774
89346.2 128092 120666
94357.8 118774 121774
154992 190236 161778
154774 187206 171774
170839 150927 182120
165882 151774 194774
98885 98354.6 63362.2
105614 88773.8 65773.8
168189 102074 130068
160774 95773.8 130970
170194 164325 186343
164774 170774 193958
95371.8 128209 133849
100774 125586 142774
174561 97876.6 105850
177890 98773.8 94773.8
103923 98626.2 89658.2
110270 91773.8 85773.8
113828 166916 183209
111658 155774 182774
166400 168839 191673
162026 176774 188774
99739 107189 111228
103774 108774 125134
105551 157175 169918
108774 147774 173986
170821 90421.4 100782
167774 84317.8 90773.8
102563 104342 113010
107774 96541.8 106774
171488 90343.4 99376.2
175186 91773.8 89773.8
105291 89798.6 64115.4
110774 82773.8 63949.8
163423 86305.4 105781
156774 79673.8 97773.8
100415 94030.6 58587.8
103774 86773.8 52809.8
98289 126793 138669
98341.8 135774 148774
108119 93854.6 86013.4
110774 89505.8 77773.8
172752 182923 150001
171958 180774 163774
102241 108172 119849
110282 101774 123774
112945 157099 183544
113774 147774 185026
103819 98382.2 89039
102774 96773.8 77965.8
172803 180686 158953
176010 174774 163774
104049 108283 124214
109574 106774 131774
145041 190092 182779
152774 183774 182978
163338 174393 189644
153774 178066 194774
113629 149172 184030
114338 139774 180774
162406 85233.4 105776
153774 82773.8 111290
172779 181715 154835
165774 186034 160774
97086.6 122940 131910
102370 116774 135774
97946.2 134889 146325
95617.8 146774 150774
169540 86620.2 92876.6
172774 85505.8 80773.8
110609 83830.6 64249.8
120170 76773.8 65773.8
113280 160830 183417
117774 154774 193258
108320 106443 128523
117586 99773.8 131774
171635 180883 163067
167538 181774 170774
168304 85008.6 91404.6
158774 79545.8 86773.8
98223 135508 148039
102774 139774 159330
164682 82932.6 89645
164774 79497.8 80773.8
113927 141535 180673
112774 134226 173774
109662 106465 131112
114774 105774 138890
113730 148193 184727
119006 139774 189774
109159 102629 122574
117774 95545.8 122774
117761 154547 192441
121582 148774 198774
87587 151817 135337
91549.8 145774 141774
165589 80323.8 82218.2
170774 78773.8 73981.8
112560 137725 175761
107706 136774 166774
112542 135107 173815
111774 129774 167970
114215 140302 180743
120374 130774 183774
120583 149675 196417
124002 140774 197774
165018 79745.8 81207
161774 72773.8 71961.8
162419 176060 189035
164774 179774 180882
106517 154355 171139
103774 145774 165974
113927 106241 137893
118582 107774 146774
118526 133632 182865
119774 126518 176774
117383 96476.2 122430
126222 90773.8 121774
169374 78315.8 75336.6
170774 72513.8 67773.8
168767 181507 168462
170534 175774 175774
114520 105914 138591
126222 100774 141774
115696 106823 141268
111774 114342 147774
116913 100573 130733
125774 95005.8 131774
124396 91753.4 121111
130226 86773.8 115774
122711 102316 140819
126774 104774 149882
[...]
CELL_DATA 1581
SCALARS radius float
LOOKUP_TABLE default
2.122e-314
100
100
1.1604
0.842963
0.987684
0.0700122
0.842802
0.985949
0.114833
0.31302
0.975318
0.974113
0.139639
0.14517
0.836524
0.0586172
0.974042
0.285457
0.173402
0.808238
0.733172
0.477417
0.777136
0.054424
0.477181
0.0642537
0.808103
0.709597
0.327267
0.161943
0.255621
0.102645
0.314273
0.427365
0.726929
0.407646
0.323308
0.111519
0.807083
0.468158
0.149932
0.379267
0.67147
0.374684
0.247383
0.802258
0.111665
0.376292
0.108399
0.200914
0.255687
0.0663729
0.373988
0.0638552
0.322476
0.724353
0.115667
0.794273
0.24806
0.501707
0.720995
0.225752
0.346984
0.0783199
0.669641
0.566078
0.491708
0.217212
0.10792
0.466255
0.251507
0.119286
0.238502
0.25558
0.329008
0.0635859
0.423099
0.77582
0.133508
0.0697914
0.253833
0.265852
0.710315
0.0652687
0.709491
0.103301
0.320281
0.0939261
0.344675
0.494846
0.172242
0.17832
0.717341
0.699857
0.243016
0.208115
0.449962
0.0632529
0.564751
0.28488
0.461129
0.0858185
0.216836
0.201152
0.407365
0.71555
0.125591
0.175363
0.3017
0.136479
0.443206
0.0750135
0.457508
0.685038
0.277273
0.13766
0.185713
0.0632588
0.684859
0.424518
0.513093
0.595883
0.478614
0.0967128
0.553332
0.277308
0.121529
0.0722944
0.697285
0.0829277
0.477782
0.393329
0.17886
0.0960506
0.339906
0.30968
0.38566
0.554315
0.21401
0.0675135
0.423948
0.0797361
0.269586
0.159592
0.168215
0.255047
0.167914
0.151327
0.508667
0.363915
0.485208
0.234458
0.395516
0.069633
0.363063
0.0775606
0.456764
0.276068
0.205344
0.242504
0.45429
0.297713
0.185913
0.418025
0.235598
0.262142
0.336389
0.698339
0.295511
0.0633033
0.3302
0.441614
0.20932
0.286739
0.141142
0.196193
0.180054
0.407091
0.646861
0.0947138
0.243174
0.0595364
0.406666
0.131389
0.481975
0.354541
0.253585
0.157952
0.269779
0.244013
0.310849
0.281609
0.135722
0.0746225
0.506112
0.0686803
0.645628
0.100747
0.144898
0.134622
0.216542
0.402693
0.197861
0.350297
0.131701
0.0672442
0.2326
0.0589879
0.402271
0.122084
0.479349
0.0972842
0.445326
0.187119
0.186869
0.252042
0.355267
0.639857
0.181466
0.0994707
0.27741
0.300741
0.166227
0.132866
0.161422
0.114318
0.224828
0.0600323
0.242795
0.0931922
0.202972
0.0508243
0.275492
0.378405
0.312731
0.381958
0.225908
0.108381
0.471793
0.299635
0.146358
0.196634
0.239545
0.147825
0.288331
0.0748886
0.503531
0.0626698
0.639656
0.151393
0.340606
0.0788518
0.239692
0.0840455
0.228883
0.10394
0.184112
0.496205
0.153325
0.372651
0.134519
0.115292
0.329536
0.470473
0.145722
0.358364
0.17891
0.463512
0.138112
0.458423
0.198306
0.614075
0.292372
0.0755499
0.350838
0.160002
0.216987
0.371561
0.164209
0.138538
0.277249
0.0856572
0.212443
0.0826282
0.310797
0.386473
0.151247
0.252378
0.150562
0.219261
0.253863
0.610319
0.16163
0.0477217
0.225196
0.0823011
0.215325
0.130703
0.381424
0.358443
0.173728
0.185305
0.215426
0.0780872
0.290503
0.286901
0.23002
0.192872
0.187542
0.0697008
0.357483
0.32898
0.218617
0.475088
0.246313
0.164663
0.337861
0.457845
0.153372
0.279859
0.420626
0.0974075
0.609491
0.337431
0.150045
0.0662771
0.278614
0.0577928
0.17157
0.115277
0.244092
0.195762
0.282391
0.342886
0.247593
0.083142
0.1447
0.104905
0.334456
0.112555
0.324528
0.116107
0.184037
0.241152
0.203035
0.111115
0.455653
0.139728
0.32612
0.184947
0.603761
0.261802
0.178332
0.271587
0.378878
0.149238
0.144262
0.0822151
0.269052
0.114731
0.33855
0.192849
0.218793
0.174834
0.214244
0.306233
0.176098
0.131955
0.22719
0.103169
0.334185
0.522619
0.422852
0.15342
0.412189
0.164867
0.157251
0.152652
0.280843
0.0784859
0.522028
0.156473
0.259527
0.259205
0.258478
0.375098
0.244594
0.0919174
0.185621
0.295136
0.22646
0.0853976
0.214184
0.179442
0.28414
0.179273
0.364997
0.183442
0.288961
0.419156
0.266936
0.504665
0.239447
0.0903161
0.277694
0.0993284
0.362528
0.0919944
0.280888
0.16823
0.338369
0.264532
0.3248
0.0739774
0.504134
0.0790724
0.241808
0.0925683
0.421368
0.093623
0.263041
0.0694349
0.193705
0.226195
0.30062
0.196583
0.221818
0.121589
0.208903
0.0856688
0.322801
0.141745
0.248535
0.101612
0.219143
0.211086
0.200081
0.18696
0.225121
0.468291
0.294074
0.210296
0.289789
0.0858577
0.41705
0.233742
0.243273
0.204118
0.234587
0.0667918
0.467838
0.136264
0.283979
0.159883
0.212839
0.360158
0.272153
0.219585
0.451123
0.0964436
0.213199
0.156924
0.444703
0.10368
0.163196
0.092015
0.280722
0.170834
0.436135
0.324017
0.233311
0.0826413
0.269588
0.0536217
0.435865
0.127867
0.217893
0.0758747
0.322624
0.210356
0.289537
0.126709
0.424149
0.156018
0.203056
0.133961
0.217549
0.107752
0.200475
0.115929
0.2011
0.138657
0.278524
0.356096
0.314646
0.195676
0.277252
0.306539
0.253809
0.133619
0.986634
0.212819
0.838254
0.0604412
0.129363
0.0670391
0.210578
0.170387
0.163752
0.0458728
0.169272
0.0896185
0.310552
0.0875344
0.15495
0.0863969
0.16141
0.0675339
0.140125
0.0897446
0.973788
0.833072
0.184971
0.0897952
0.126563
0.836101
0.0961549
0.732081
0.120675
0.0447538
0.184094
0.317882
0.143092
0.275673
0.132209
0.0694225
0.16961
0.0618644
0.12753
0.165739
0.119026
0.123642
0.138602
0.0670856
0.166037
0.473229
0.119433
0.466522
0.102344
0.773619
0.158252
0.0565855
0.159606
0.0558173
0.103223
0.0457871
0.0995139
0.171524
0.296226
0.0618127
0.140036
0.0902411
0.725902
0.234486
0.156186
0.183017
0.296764
0.100677
0.214613
0.0683715
0.102194
0.0623173
0.198895
0.101851
0.206676
0.115288
0.222687
0.669998
0.125698
0.167851
0.14642
0.0791252
0.177948
0.121059
0.148461
0.802978
0.19985
0.241693
0.229051
0.0859546
0.215775
0.0921955
0.158014
0.722517
0.142308
0.464338
0.107596
0.179948
0.173425
0.233149
0.159296
0.194931
0.141636
0.0641395
0.177588
0.0596051
0.177741
0.158874
0.205383
0.0512844
0.103913
0.11946
0.192411
0.1595
0.181597
0.0624361
0.113288
0.209673
0.16986
0.144432
0.174746
0.565015
0.100654
0.202867
0.200049
0.0824848
0.151553
0.0599042
0.20803
0.160566
0.148389
0.0609738
0.169656
0.139121
0.166514
0.221227
0.199688
0.423577
0.127182
0.112203
0.229919
0.0590917
0.250415
0.108766
0.459103
0.0615209
0.175845
0.0998815
0.163111
0.234364
0.141451
0.21581
0.141309
0.0775613
0.195709
0.0854741
0.150158
0.173395
0.172326
0.447478
0.114477
0.121741
0.179126
0.0988543
0.157638
0.101931
0.190807
0.0470827
0.184699
0.100398
0.164179
0.0886893
0.189439
0.0958078
0.148279
0.259019
0.187555
0.0617944
0.214107
0.101222
0.163312
0.697544
0.105115
0.271892
0.106771
0.0883209
0.177706
0.0569589
0.117207
0.288352
0.151629
0.108057
0.146803
0.20892
0.202136
0.118453
0.325334
0.13968
0.144581
0.158779
0.54894
0.102527
0.178848
0.065242
0.250576
0.330486
0.146982
0.066175
0.175788
0.087042
0.149532
0.138738
0.18613
0.545613
0.144052
0.187711
0.215275
0.0840034
0.247389
0.320147
0.117467
0.0882403
0.129958
0.352001
0.107003
0.0835684
0.14027
0.0587726
0.148313
0.0886256
0.243538
0.421266
0.112837
0.213349
0.1679
0.0977632
0.178419
0.0977404
0.127146
0.247872
0.132056
0.0768972
0.141159
0.234277
0.172753
0.446868
0.148108
0.316796
0.123761
0.133185
0.133838
0.506652
0.115927
0.0816677
0.211283
0.0468742
0.119736
0.135304
0.159378
0.112132
0.159033
0.155586
0.178271
0.232657
0.121334
0.645887
0.106871
0.322971
0.132253
0.394045
0.120902
0.116962
0.161818
0.141371
0.170088
0.198058
0.228084
0.101149
0.144021
0.086886
0.171108
0.146189
0.166851
0.504082
0.115814
0.0866046
0.150352
0.473691
0.15679
0.100886
0.248146
0.397803
0.128964
0.113375
0.133833
0.117445
0.442586
0.161567
0.151326
0.0764822
0.139036
0.16664
0.193438
0.126333
0.187978
0.439285
0.124406
0.0933101
0.185912
0.0429119
0.165268
0.0985504
0.158255
0.0612989
0.127117
0.164742
0.21596
0.644685
0.105607
0.0867213
0.141243
0.0759491
0.138493
0.118691
0.162658
0.113967
0.469565
0.100329
0.209111
0.635417
0.172908
0.467564
0.109654
0.123577
0.237478
0.104242
0.146912
0.347044
0.111486
0.501037
0.123579
0.142875
0.175932
0.197321
0.154413
0.161026
0.209671
0.0528313
0.131746
0.073537
0.145215
0.170151
0.168512
0.170507
0.171298
0.356396
0.110182
0.112541
0.198252
0.160402
0.198858
0.0616368
0.158585
0.108878
0.132327
0.104331
0.182106
0.16772
0.169504
0.0816902
0.166603
0.070225
0.131774
0.172802
0.169126
0.118026
0.173603
0.0740382
0.144341
0.104958
0.18859
0.133453
0.127055
0.107193
0.168773
0.14746
0.162559
0.190158
0.165637
0.166415
0.191339
0.0905638
0.157157
0.0793045
0.142264
0.350425
0.138432
0.0694784
0.151283
0.152507
0.183797
0.049394
0.155609
0.11298
0.17325
0.0627732
0.159377
0.100316
0.167053
0.213677
0.173113
0.281866
0.128509
0.452517
0.124717
0.260345
0.158497
0.602169
0.120191
0.122686
0.168094
0.166574
0.261574
0.0818239
0.145233
0.164236
0.237917
0.147113
0.19027
0.0665749
0.139372
0.0907597
0.164362
0.0985726
0.144712
0.40698
0.137894
0.0869521
0.177067
0.311759
0.15395
0.138832
0.220982
0.118045
0.15045
0.351698
0.160619
0.0717871
0.211523
0.184001
0.161906
0.323801
0.169312
0.0899827
0.193821
0.181018
0.226036
0.156771
0.19894
0.167415
0.245432
0.0871489
0.176636
0.0766863
0.242911
0.144123
0.186341
0.145503
0.188943
0.201597
0.208592
0.175437
0.231385
0.117262
0.160239
0.206333
0.248491
0.418259
0.118013
0.152318
0.198954
0.105406
0.177306
0.0986053
0.182179
0.14035
0.232568
0.141733
0.225626
0.26104
0.163539
0.125402
0.231616
0.158965
0.216314
0.154262
0.205806
0.114424
0.191351
0.117337
0.204133
0.127945
0.172955
0.0822374
0.152274
0.334174
0.129989
0.174738
0.196388
0.126404
0.193815
0.212954
0.244846
0.0989981
0.152893
0.157101
0.179301
0.405902
0.142971
0.411731
0.139937
0.187772
0.205919
0.427885
0.164673
0.103691
0.160275
0.194551
0.185487
0.23168
0.213169
0.157957
0.250144
0.113378
0.170131
0.127552
0.196708
0.122753
0.239875
0.15655
0.215196
0.152868
0.168688
0.178567
0.294172
0.115953
0.28804
0.160692
0.231184
0.25461
0.194803
0.224278
0.217755
0.0973857
0.187281
0.133011
0.230992
0.187429
0.213749
0.17054
0.253819
0.987451
0.0880548
0.986468
0.0785456
0.0905687
0.11245
0.837979
0.0834203
0.0709336
0.104992
0.118545
0.127123
0.132183
0.123762
0.975069
0.0893171
0.305365
0.11385
0.124022
0.093416
0.0727211
0.10295
0.0831044
0.105773
0.973325
0.109614
0.0661217
0.111794
0.0943389
0.127859
0.0703527
0.0989496
0.115258
0.0946741
0.0711126
0.120061
0.475751
0.0991071
0.773163
0.0935525
0.807793
0.0846806
0.0747538
0.130937
0.0773817
0.107441
0.143941
0.0993584
0.107875
0.141122
0.129803
0.105773
0.109417
0.112825
0.726366
0.0962129
0.0455845
0.147015
0.0731426
0.161164
0.221757
0.125732
0.117224
0.130042
0.291722
0.105304
0.102778
0.241322
0.318357
0.108255
0.725335
0.0963933
0.1206
0.157146
0.232544
0.113921
0.220229
0.110128
0.121303
0.193258
0.0911429
0.13355
0.0667927
0.103052
0.140158
0.135042
0.0743074
0.153932
0.0732881
0.116774
0.109053
0.162661
0.065214
0.108297
0.132909
0.148388
0.139343
0.148625
0.180334
0.128413
0.709675
0.0988911
0.124754
0.188726
0.489474
0.0927717
0.0879089
0.112876
0.150868
0.155829
0.145517
0.153835
0.0750308
0.157155
0.116418
0.149227
0.10075
0.129163
0.0997807
0.142406
0.0641324
0.152121
0.194073
0.0939565
0.716837
0.0919431
0.0923042
0.108315
0.102819
0.120155
0.323824
0.118337
0.100651
0.122129
0.237456
0.098743
0.0867824
0.126807
0.067192
0.169964
0.0539827
0.164601
0.490582
0.0933936
0.217793
0.122171
0.0828847
0.157274
0.342443
0.0924453
0.119557
0.129501
0.0965896
0.124485
0.119276
0.14756
0.131625
0.167106
0.206649
0.0992288
0.106206
0.157668
0.104226
0.140238
0.119783
0.130031
0.128767
0.164637
0.123593
0.199392
0.062554
0.140567
0.458179
0.083542
0.0816521
0.194719
0.696671
0.0963408
0.40529
0.100931
0.0718208
0.117216
0.125032
0.201984
0.148647
0.146455
0.116984
0.179483
0.10455
0.192179
0.269106
0.112416
0.10279
0.165411
0.126945
0.171588
0.123642
0.141684
0.382766
0.108622
0.125077
0.156392
0.126768
0.183925
0.0985491
0.130418
0.259785
0.127246
0.0605281
0.137901
0.476245
0.101607
0.100562
0.160553
0.291748
0.0990999
0.330974
0.121844
0.132886
0.149376
0.116719
0.118696
0.0671263
0.135888
0.393375
0.0999829
0.359872
0.107738
0.452227
0.108339
0.110439
0.150929
0.116314
0.118767
0.0726165
0.163244
0.09897
0.115246
0.127343
0.129508
1.14421
0.0711263
1.14412
0.14018
1.14242
0.146331
1.14161
0.153791
1.14068
0.165198
1.13953
1.14312
0.15791
0.0687935
1.13944
1.05159
0.681472
0.0937782
1.05134
0.6671
0.269637
0.0813059
0.666697
0.0869704
1.05115
0.11772
0.261941
0.167542
0.663151
0.0871621
1.05095
0.406088
1.0178
1.03891
0.340393
0.0818093
0.404978
0.0969242
0.66246
0.168492
0.658807
0.113646
1.01732
0.210886
1.0143
0.126309
0.40084
0.1207
0.657454
0.1586
0.654363
0.120786
0.196752
0.171348
0.390119
0.0936382
1.01403
0.124298
0.652864
0.697975
0.889023
0.294673
0.32328
0.177636
0.648451
0.181072
0.22917
0.675349
0.317504
0.0969698
0.888638
0.0812105
0.674957
0.0979426
0.337668
0.140025
0.283733
0.136942
0.314873
0.136752
0.308812
0.178513
0.257897
0.190437
0.316133
0.147482
0.887282
0.137721
0.67304
0.115675
0.647222
0.138239
0.307065
0.205577
0.272634
0.195506
0.667496
0.878046
0.278444
0.141984
0.298465
0.164383
0.299168
0.117645
0.666276
0.103673
0.877564
0.160895
0.281986
0.199229
0.640867
0.323888
0.639718
0.162597
0.251805
0.820908
0.496815
0.150202
0.263039
0.0954372
0.820478
0.168724
0.307844
0.133423
0.637778
0.0942964
0.640186
0.626037
0.257199
0.209708
0.618093
0.189926
0.281567
0.130982
0.251734
0.127967
0.636056
0.115243
0.494739
0.111437
0.819792
0.188975
0.485372
0.566542
0.422624
0.186412
0.816566
0.132654
0.564107
0.100109
0.617216
0.602411
0.254675
0.140557
0.599849
0.145292
0.480993
0.132268
0.244966
0.131491
0.815428
0.177055
0.472859
0.782454
0.398224
0.209496
0.591208
0.156112
0.560093
0.150376
0.41618
0.0940889
0.782001
0.259986
0.540761
0.157431
0.536276
0.140459
0.239553
0.26482
0.513824
0.276882
0.570229
0.113651
0.7812
0.262196
0.551117
0.167923
0.507774
0.252322
0.447584
0.0893265
0.258694
0.28999
0.36266
0.155926
0.39009
0.117995
0.283327
0.253688
0.350431
0.205863
0.776405
0.093572
0.775952
0.163281
0.773534
0.225022
0.33112
0.235865
0.49021
0.251761
0.466992
0.291532
0.522461
0.65456
0.567123
0.136666
0.519325
0.148639
0.442051
0.151761
0.312357
0.122664
0.345347
0.108708
0.653559
0.213279
0.315772
0.34197
0.395473
0.205475
0.557986
0.211081
0.646135
0.225082
0.50483
0.530972
0.28857
0.269163
0.506836
0.323869
0.37423
0.154705
0.272915
0.222955
0.489897
0.287191
0.30625
0.18123
0.641347
0.220128
0.632584
0.1613
0.501331
0.207547
0.625048
0.155476
0.621824
0.576931
0.364449
0.220378
0.486714
0.246923
0.468025
0.345575
0.394188
0.399988
0.504016
0.163327
0.390697
0.248111
0.464197
0.147815
0.356157
0.343222
0.390598
0.292115
0.468921
