# vtk DataFile Version 3.0
Tree
ASCII
DATASET POLYDATA
POINTS 1582 float
162774 225274 273.8
162774 225274 10273.8
141774 225774 23773.8
139774 213262 31773.8
140214 218155 31273.8
136774 209782 52773.8
138356 213633 42883.8
118774 204774 47949.8
137249 210937 49807
148774 201774 66961.8
124649 207432 46430.2
120774 198050 66773.8
148905 201733 65031.8
159122 193774 74773.8
148813 201761 66383
135774 196070 80773.8
121936 200864 60670.6
104254 190774 63773.8
120107 198355 65761
111774 189974 81773.8
156502 195096 70025
171786 178774 70773.8
158336 194171 73349
168862 185774 92773.8
105708 190675 64149
94289.8 181774 67773.8
136103 196852 80679.8
125774 193986 92773.8
167691 181361 69311.4
172014 165774 61773.8
166319 187313 85415
177014 175774 88773.8
139916 198325 76391
143774 195998 100774
171746 167402 65025.8
175998 153774 64773.8
173805 179235 87766.2
177774 175774 105454
126545 195133 92136.2
113774 193986 107774
173362 162223 64930.2
171978 153774 51773.8
95760.2 182233 67775
82773.8 167886 74773.8
91864.6 177929 69874.6
87773.8 176774 90429.8
140579 196743 96891.4
136774 195998 114774
172489 165019 64981.8
180774 157774 81581.8
91867.4 178467 78070.6
99773.8 183998 88773.8
178289 159947 76601.8
181962 143774 76773.8
175351 154491 64548.6
177966 137774 62773.8
176266 177089 98732.6
183914 156774 104774
179922 167835 103793
183262 161774 119774
84774.6 168762 73031
79533.8 154774 71773.8
87653.8 176251 88121
79021.8 169774 97773.8
87737.8 176617 89737
93585.8 184774 100774
117082 194826 106152
112774 197774 126346
136007 196182 113282
130774 196018 124774
136544 196053 114326
150774 195998 120774
143090 196028 117292
143774 195998 130774
168099 186235 90566.2
165982 188774 110774
181357 145029 77558.6
183998 129774 79773.8
177647 138643 61941.8
179814 121774 57773.8
158886 193893 74346.2
152774 194014 84773.8
178630 127678 57895.8
176774 121774 48225.8
182209 159570 102952
183998 142774 94773.8
183402 157613 104227
183998 140774 119774
182399 162033 118580
183998 155774 133774
80697 157151 73093.4
77733.8 144774 78773.8
78859.8 149477 76615
81601.8 137774 68773.8
81120.2 141870 69978.2
85017.8 137774 57773.8
81611.4 171717 94877.8
77773.8 147774 105890
78071.4 146185 78126.2
77549.8 142774 91773.8
183309 156365 127381
183990 140774 134774
91831.4 182327 97463
84773.8 180774 117954
86891 181240 111807
81481.8 165774 118774
113873 197111 125712
111774 198774 147162
110481 197135 134797
103558 195774 139774
148729 195623 120957
159774 193230 132774
79363.8 157134 103139
79537.8 154774 113774
143725 195981 130463
144774 195886 152774
155577 194139 128283
167774 189226 124774
110869 197627 138507
127202 199774 144774
85578.2 180951 115618
90345.8 187774 123774
183217 142743 132777
179782 124774 134774
140186 196810 145359
134774 198002 154774
111430 198338 143873
104218 189774 152774
183758 141365 134175
179814 136774 150774
181989 133119 130767
181774 123774 123886
81457.4 139003 69135
87545.8 121774 65773.8
180997 138151 145794
176774 128226 147774
181864 126297 124468
182002 123774 114774
85015 180827 117253
87545.8 175774 131774
179509 136526 149613
174006 130774 157774
183367 156075 133173
182002 155774 152774
158389 193277 132408
162774 190774 143954
77873.4 144889 83312.2
82317.8 127774 88773.8
111671 198643 146175
114682 195774 160774
85697 127664 65410.2
89561.8 120774 54773.8
136991 197553 153159
137082 197774 166774
78890.2 149230 105334
81773.8 134774 108798
181656 163774 114144
180010 171774 124774
79950.2 154249 110041
83017.8 143774 119774
179677 125627 133577
174774 114774 133950
86722.6 174871 128247
87497.8 166774 135774
174759 131207 155594
168774 122774 157946
113455 197363 125953
102774 194098 122774
181801 124531 124061
177394 111774 120774
87637.4 175241 131233
91669.8 175774 142774
113779 196635 156394
108774 181774 167974
176661 129035 147420
171546 119774 148774
87203.4 169851 132914
84773.8 158774 129974
181563 156281 150870
180014 156774 161774
89169.8 175443 135619
94773.8 185774 139162
82219 129921 89713
85773.8 120774 96809.8
109685 186135 163081
102774 175774 161974
84707.4 123518 94680.6
88773.8 115582 90773.8
114794 195513 160108
118774 190774 171974
179723 136699 150425
177194 139774 160774
87579 122487 66317.4
93461.8 108774 70773.8
163398 190435 127543
173978 182774 133774
89079 121094 57225.8
93565.8 109774 51773.8
91569.4 175265 142246
95773.8 172774 152802
174232 130904 157120
168774 130774 167950
84822.2 138525 58264.2
88773.8 135774 45577.8
143397 196163 150549
154774 192018 152774
92219.8 113170 53409.4
94521.8 111774 42773.8
117260 190933 169442
115638 182774 176774
138400 196756 162179
146774 191186 175774
85966.2 121193 96139
91033.8 113774 99773.8
142218 194083 170628
139954 194774 180774
178357 113678 119987
175774 100774 108814
179877 156361 160370
176050 154774 172774
82932.6 144922 117706
88325.8 131774 123774
104287 176891 162245
100254 163774 161774
175230 117453 134824
165774 106774 141130
85831.4 120900 96608.6
86773.8 123774 107166
135439 197867 154289
123774 200002 154774
177683 112345 120538
169234 101774 127774
93161.8 110793 52264.6
97485.8 100774 60773.8
172497 182378 131888
179774 175082 134774
169270 124211 157596
160774 116774 159982
88655.8 116424 91828.6
95773.8 106290 90773.8
115610 183717 174934
112310 173774 177774
168987 130293 166121
159774 127090 175774
93009 111327 72065
97565.8 102774 77773.8
182681 156154 139898
181998 166774 145774
168838 130629 167401
171774 140774 172970
177504 155377 168060
174774 167158 175774
88125.4 133109 121832
93773.8 121518 123774
172943 105863 123682
169774 98513.8 120774
176225 154241 171210
172006 148774 178774
131006 198678 154473
125774 199814 165774
170349 99554.6 120411
167774 91773.8 112574
89505.4 116684 99891
95681.8 111774 111774
173534 182655 133208
171774 185258 144774
162538 128051 172878
161254 133774 183774
93638.6 109330 91090.2
99773.8 103774 102134
139851 195741 165390
151774 190774 165170
175101 163783 174811
171846 165774 183774
84490.6 141378 118944
88997.8 139774 131774
175154 101576 109937
172514 93773.8 103774
88229 138935 127781
94773.8 129774 135326
161742 131599 179633
166774 139774 181318
95595.8 107031 90400.6
103502 98773.8 86773.8
102109 169808 161991
107354 159774 173774
168068 92863.8 112898
165882 86773.8 104774
97299.4 101778 60971.4
100526 95773.8 68773.8
181625 165026 145307
178014 174774 153774
173272 150414 176505
169958 154774 187774
99041.8 98535.8 65184.6
104290 89773.8 62773.8
169947 98826.2 120665
162410 93773.8 125774
95905.4 111552 110423
101774 106774 117134
93779 130847 133351
100290 119774 135774
113910 175854 178040
115490 163774 186774
170952 153466 184393
166774 148226 189774
162969 190535 143373
167230 187774 151774
171728 165537 182861
166774 167774 193318
105297 161886 169265
105774 149774 171026
174151 98611.4 107595
177774 98773.8 96797.8
99999.8 107849 113778
107126 99773.8 113774
145407 192055 174230
154774 186098 172774
168260 167103 190181
162774 175774 191130
94475.4 130096 134733
100342 127774 144774
167106 88765.4 106077
169158 85773.8 93773.8
102728 99249 86534.2
109774 91033.8 81773.8
105555 155345 170216
111506 150774 179774
166249 87371.4 105165
157774 81017.8 99773.8
97429.8 101075 60833
100318 93773.8 53773.8
105713 101357 112935
110774 95505.8 107774
177693 173726 153702
173774 179386 160774
101849 106865 116212
108774 103506 122774
176614 98026.2 98006.2
177774 96289.8 88773.8
104480 105588 118705
104774 109658 128774
163029 84957 103116
155894 81773.8 107774
108151 92375.4 81566.6
111774 84773.8 71113.8
176715 95877.4 92183.8
173774 88009.8 84773.8
111983 84878.2 71633.4
114774 79773.8 65133.8
159333 82190.6 99823.8
155774 79545.8 91773.8
97819.4 129892 141577
100342 135774 152774
148967 189791 173677
152974 183774 182774
162855 173993 191171
152774 179774 193258
110357 150608 177499
114774 140774 181958
107971 104132 122548
113774 102774 131334
99181.4 133068 147623
95533.8 143774 148774
167990 85977.4 95835.8
164774 81457.8 84773.8
111718 146296 178321
111562 138774 174774
111161 150724 179091
117638 150774 192774
114296 80007.4 65153
116258 74773.8 57773.8
174132 178192 160035
168774 181774 169134
99996.2 135807 151688
100774 142774 157894
172525 179267 162765
163966 186774 161774
114631 79843.8 65139.4
122226 75773.8 66773.8
170799 180420 165694
171842 175774 173774
109712 103725 125184
117774 96345.8 124774
179420 169432 151642
177950 169774 164774
114020 143148 181514
118774 140774 189958
174670 88850.6 84969
172774 79773.8 74885.8
116834 152162 190890
120318 155774 197774
96178.6 140587 147391
91021.8 147774 141774
164986 81159.4 85468.6
162774 76517.8 77773.8
111683 139488 174513
111774 130578 168774
113052 103387 130667
118774 104774 141946
118050 140506 187932
122774 134282 191774
100541 140684 156032
105774 139774 165962
114547 141486 181825
119774 129774 180574
118557 140693 189350
124234 141774 198774
171981 80570.6 76401
167774 72245.8 68773.8
162642 76616.6 78276.2
159774 71565.8 70773.8
151771 185579 180045
161890 181774 179774
116780 97558.2 124465
126222 90773.8 121774
115645 105899 138941
115774 110774 147326
171081 177028 172712
168418 175774 181774
117476 96709.4 124681
124774 97461.8 134774
118769 104937 141837
124774 103774 146966
114659 99407.8 124680
117578 92773.8 115774
115319 110297 145712
112774 116774 151970
122972 104123 145427
131774 99549.8 143774
125315 91532.6 121515
133774 85729.8 117774
92792.2 146658 144047
90773.8 157774 143970
118077 93570.6 117339
126774 85669.8 109774
124233 103879 146504
132774 105774 155362
112728 115865 150253
107538 122774 151774
99585 128409 143815
103774 120774 143194
128162 104750 150579
125774 111774 159986
132330 86742.6 117841
139774 81773.8 111042
133341 86033.8 117794
142774 85533.8 120774
126576 86755 110189
133522 82773.8 104774
125950 91001.4 121696
133774 89773.8 127890
100556 164626 161233
97773.8 154774 157370
99721.4 161670 160074
94773.8 160774 151970
112760 116501 151455
115774 120774 163130
138324 82804.2 111580
143774 79549.8 101774
111243 133584 169663
[...]
CELL_DATA 1581
SCALARS radius float
LOOKUP_TABLE default
2.122e-314
100
100
1.15533
0.079646
1.15502
0.970425
0.853908
0.184171
0.968208
0.848445
0.204307
0.706243
0.819828
0.0485714
0.706167
0.259515
0.840274
0.182012
0.225377
0.766847
0.462946
0.193166
0.76274
0.128186
0.839053
0.0551818
0.584548
0.162816
0.452552
0.74793
0.287213
0.532406
0.585387
0.444181
0.160683
0.1974
0.743318
0.065575
0.581823
0.182055
0.358612
0.0648131
0.837741
0.711327
0.610118
0.522137
0.19545
0.373615
0.328605
0.601299
0.207396
0.259363
0.256937
0.0662303
0.355574
0.740809
0.127754
0.209208
0.734738
0.702489
0.206536
0.418712
0.52296
0.0564207
0.41837
0.216514
0.569946
0.502531
0.176986
0.0529068
0.502336
0.360482
0.430737
0.282288
0.106203
0.0929384
0.206134
0.16348
0.34366
0.0484179
0.192146
0.125148
0.325442
0.136227
0.187848
0.0695049
0.184621
0.0692978
0.729097
0.0800156
0.702143
0.649363
0.416673
0.391455
0.200301
0.0905094
0.510553
0.647996
0.119968
0.497095
0.639115
0.414671
0.124405
0.384966
0.23443
0.194527
0.559193
0.55508
0.144053
0.356165
0.118467
0.480935
0.263654
0.176327
0.420653
0.28689
0.25683
0.550441
0.162003
0.369194
0.188792
0.446285
0.551554
0.168977
0.405216
0.538071
0.22235
0.0643608
0.445838
0.5187
0.299395
0.0696563
0.390719
0.401145
0.284083
0.511288
0.180672
0.0654925
0.368506
0.139058
0.395496
0.0637494
0.496745
0.232919
0.138043
0.180573
0.643287
0.067518
0.537717
0.346629
0.25665
0.359195
0.265451
0.0842569
0.253933
0.729306
0.197773
0.0940316
0.479733
0.124064
0.292118
0.289638
0.281112
0.374655
0.200823
0.0626062
0.192341
0.0658368
0.510924
0.281725
0.12467
0.498632
0.315813
0.0762871
0.267013
0.191516
0.247659
0.0830483
0.415081
0.190815
0.248862
0.162362
0.63845
0.156923
0.491896
0.585896
0.386479
0.0659236
0.31134
0.0578808
0.135632
0.23293
0.130892
0.263728
0.158886
0.170883
0.320666
0.0921055
0.183375
0.0703493
0.373827
0.0770774
0.182781
0.104883
0.154264
0.145265
0.305371
0.101165
0.300934
0.348326
0.159803
0.159521
0.581927
0.286982
0.22607
0.440162
0.363664
0.080251
0.403706
0.0872609
0.475253
0.0889805
0.483987
0.150083
0.261881
0.0478648
0.158072
0.0740349
0.263517
0.0667327
0.43965
0.0855828
0.303113
0.179478
0.232459
0.103995
0.171513
0.119482
0.382634
0.100414
0.297161
0.203343
0.309622
0.164849
0.201309
0.428451
0.348558
0.0745804
0.199942
0.305012
0.334476
0.0991545
0.235699
0.123476
0.43638
0.294686
0.140705
0.205451
0.212729
0.187753
0.424472
0.0920092
0.58116
0.0857617
0.172698
0.132293
0.276622
0.360346
0.198406
0.327695
0.191961
0.1125
0.330179
0.241409
0.45351
0.0886168
0.357575
0.106251
0.451558
0.186535
0.211353
0.0710978
0.354881
0.467379
0.224236
0.406907
0.151682
0.25705
0.221483
0.0821278
0.342949
0.260352
0.199523
0.15104
0.238339
0.0632624
0.185328
0.0769371
0.577577
0.417114
0.241419
0.178715
0.27383
0.163836
0.23663
0.156138
0.206687
0.0876679
0.319847
0.125087
0.464373
0.130269
0.351716
0.197835
0.569734
0.113663
0.280911
0.132832
0.31202
0.0736489
0.416347
0.328351
0.317388
0.178478
0.339146
0.45576
0.176187
0.0855715
0.326402
0.0712799
0.218994
0.103852
0.187795
0.319093
0.129336
0.5677
0.125432
0.102967
0.34875
0.562829
0.167143
0.165279
0.311617
0.104196
0.32826
0.12894
0.332795
0.166449
0.313326
0.187835
0.286969
0.17206
0.406312
0.236969
0.206926
0.197675
0.282949
0.396706
0.318263
0.0760946
0.562365
0.271614
0.354089
0.121219
0.311381
0.346012
0.275918
0.0863246
0.316131
0.20116
0.26198
0.0914545
0.316569
0.222206
0.20852
0.267879
0.232095
0.0736706
0.260024
0.21115
0.214062
0.474237
0.414459
0.326024
0.178442
0.300603
0.242514
0.269311
0.17928
0.144631
0.250417
0.336993
0.182965
0.107026
0.307108
0.100081
0.253058
0.470843
0.131483
0.190698
0.27247
0.141981
0.200908
0.0958906
0.23741
0.103087
0.267459
0.157315
0.250077
0.115126
0.301617
0.158571
0.210442
0.160937
0.36663
0.319776
0.415407
0.128142
0.194075
0.0693009
0.156534
0.0562048
0.410661
0.376688
0.260827
0.292201
0.197899
0.198758
0.394515
0.32994
0.237308
0.260148
0.274415
0.101337
0.255625
0.0816934
0.387603
0.169621
0.271751
0.100653
0.159714
0.14922
0.373312
0.217835
0.294649
0.0844812
0.213514
0.109645
0.248716
0.0685552
0.235386
0.198132
0.151788
0.152833
0.161446
0.0882717
0.26861
0.127697
0.286426
0.168524
0.225188
0.15828
0.225194
0.184436
0.189156
0.354909
0.194173
0.3013
0.25889
0.0719555
0.299926
0.0711311
0.190937
0.11944
1.15441
0.0801494
0.105942
1.15393
0.124258
0.852376
0.149554
0.164871
0.120859
0.0716466
0.115748
0.0416162
0.163982
0.966661
0.141726
0.0792061
0.157575
0.0975963
0.196596
0.050402
0.195485
0.119458
0.130215
0.0581659
0.138382
0.166115
0.142384
0.0463695
0.181004
0.819404
0.0949003
0.127956
0.135518
0.0719048
0.131583
0.103248
0.21791
0.0484342
0.125838
0.11865
0.162104
0.111572
0.151498
0.192914
0.146867
0.838143
0.124283
0.0629778
0.120344
0.126736
0.172621
0.130564
0.1429
0.108498
0.144846
0.0572905
0.139762
0.0794893
0.138655
0.0881722
0.133866
0.0541165
0.142283
0.837313
0.0965996
0.0989712
0.580867
0.531111
0.103182
0.0608946
0.143287
0.187143
0.104399
0.708391
0.164341
0.116201
0.158615
0.0788371
0.134844
0.0487105
0.157069
0.740349
0.0911272
0.065051
0.186044
0.600399
0.099162
0.143997
0.113255
0.138508
0.150028
0.509745
0.214701
0.054941
0.193992
0.0604185
0.204798
0.198526
0.132484
0.119423
0.126493
0.0498343
0.197473
0.0588583
0.154506
0.171178
0.25952
0.155045
0.174892
0.0846659
0.133493
0.105764
0.156496
0.0819331
0.20033
0.0586112
0.160929
0.513027
0.199964
0.0592455
0.258328
0.157302
0.156163
0.1008
0.253108
0.0612276
0.148088
0.5115
0.106338
0.331498
0.130155
0.0630886
0.172112
0.0867106
0.147714
0.113237
0.252125
0.408209
0.162863
0.761789
0.0965362
0.104149
0.509105
0.0999375
0.247804
0.076815
0.196112
0.72678
0.154448
0.0933473
0.162424
0.0855096
0.183563
0.148146
0.176598
0.102278
0.175055
0.130793
0.318242
0.412002
0.111011
0.18724
0.113747
0.0942896
0.167573
0.343566
0.166639
0.145815
0.140737
0.0375583
0.175757
0.0907759
0.24814
0.0868316
0.13473
0.742073
0.106802
0.109089
0.159611
0.293715
0.163178
0.0765084
0.16108
0.256989
0.110662
0.245757
0.218945
0.414783
0.145384
0.133382
0.157672
0.137301
0.118485
0.103544
0.227494
0.223674
0.136655
0.0777012
0.137574
0.145167
0.227559
0.172283
0.137897
0.168417
0.218557
0.0859616
0.129114
0.105158
0.21054
0.150558
0.203044
0.0814276
0.220018
0.0542094
0.116159
0.111401
0.212609
0.494606
0.116377
0.109349
0.118921
0.416186
0.187227
0.0634444
0.133423
0.138884
0.159401
0.269073
0.151039
0.35963
0.152252
0.443914
0.104534
0.168751
0.132194
0.0885187
0.180385
0.135412
0.234708
0.108841
0.16607
0.0832179
0.208271
0.108834
0.14408
0.0925754
0.147632
0.138008
0.25411
0.336089
0.15446
0.129399
0.190078
0.476231
0.105645
0.061361
0.152913
0.054941
0.127582
0.102265
0.144407
0.0733101
0.166262
0.146476
0.157162
0.0971436
0.161303
0.126698
0.206742
0.112768
0.14032
0.047407
0.142349
0.0781518
0.152875
0.123249
0.206287
0.40476
0.156625
0.143209
0.230541
0.0804853
0.141933
0.108584
0.196233
0.144042
0.161507
0.0589536
0.114492
0.0697035
0.228397
0.138867
0.147662
0.112429
0.146974
0.304698
0.123651
0.0996814
0.24889
0.153714
0.165416
0.146731
0.203237
0.336463
0.241877
0.637308
0.111717
0.0968249
0.222443
0.344512
0.113387
0.150102
0.13967
0.142263
0.201056
0.188446
0.205874
0.0957753
0.188312
0.35938
0.118875
0.379373
0.112401
0.125702
0.169632
0.142606
0.24695
0.0989242
0.142179
0.14983
0.22819
0.183217
0.207311
0.0716358
0.160811
0.0852307
0.14805
0.286361
0.147662
0.155649
0.200023
0.154899
0.149731
0.0948832
0.180061
0.578031
0.146632
0.114625
0.192795
0.298892
0.143908
0.108521
0.138758
0.15217
0.208299
0.0845815
0.176999
0.148858
0.167443
0.142366
0.216931
0.0841659
0.172262
0.129172
0.184098
0.11905
0.191643
0.0704045
0.134565
0.0671727
0.14727
0.0929422
0.237213
0.126271
0.172722
0.109532
0.229158
0.0881933
0.135117
0.108191
0.223978
0.146281
0.207264
0.35583
0.120217
0.148153
0.179525
0.322027
0.137522
0.17186
0.183313
0.0628739
0.19742
0.176227
0.246948
0.413815
0.177762
0.12944
0.178019
0.144933
0.179833
0.251625
0.173639
0.158935
0.183648
0.0617768
0.124456
0.0675143
0.147085
0.0593032
0.176268
0.128784
0.234673
0.136301
0.19046
0.0666791
0.118807
0.132004
0.187669
0.101212
0.188122
0.15883
0.207367
0.339126
0.150599
0.0999603
0.230528
0.108152
0.163572
0.126862
0.189341
0.0991292
0.166828
0.126716
0.150987
0.163612
0.209227
0.156768
0.203265
0.0659187
0.162928
0.113866
0.169722
0.0805276
0.178335
0.101343
0.188364
0.296707
0.166784
0.331723
0.135827
0.442496
0.175795
0.135047
0.160828
0.0971639
0.169212
0.265564
0.21049
0.202533
0.18795
0.303857
0.152393
0.0978515
0.178529
0.158227
0.18702
0.176702
0.262631
0.15472
0.218046
0.167379
0.237673
0.119027
0.158682
0.246332
0.197517
0.107964
0.169462
0.123568
0.140655
0.154688
0.213446
0.258171
0.156022
0.0637719
0.126279
0.116821
0.197739
0.293548
0.226128
0.080715
0.214295
0.16228
0.176893
0.0746372
0.205282
0.138486
0.207288
0.181725
0.213283
0.168231
0.234041
0.0816374
0.170896
0.191899
0.184834
0.484987
0.123334
0.13881
0.140241
0.228561
0.178277
0.411012
0.131058
0.208233
0.264048
0.111405
0.159876
0.14604
0.242368
0.143212
0.20803
0.0765178
0.173449
0.140498
0.253856
0.0503936
0.196804
0.124009
0.199448
0.142142
0.170769
0.381096
0.142337
0.388808
0.137968
0.24796
0.175644
0.174266
0.164378
0.108981
0.176235
0.18102
0.237809
0.154719
0.170392
0.400901
0.138283
0.19508
0.252374
0.155485
0.213194
0.120263
0.242922
0.100381
0.187683
0.188492
0.272716
0.183852
0.241407
1.15515
0.0900504
1.15483
0.0909329
0.0849447
0.100372
0.117546
0.119834
0.0769495
0.108157
0.0799387
0.107852
0.967676
0.114406
0.0772256
0.120446
0.0728636
0.135716
0.0688649
0.105398
0.100647
0.113965
0.0702675
0.10979
0.840049
0.0780858
0.584712
0.0885072
0.0806923
0.125219
0.705744
0.0858154
0.145565
0.105534
0.0866942
0.46193
0.169456
0.13061
0.0875334
0.46088
0.762305
0.0911704
0.0899688
0.583837
0.118007
0.117064
0.45947
0.0963894
0.837871
0.0830782
0.582101
0.120963
0.063853
0.0978732
0.451082
0.0965417
0.113915
0.111927
0.069915
0.112614
0.0666888
0.117521
0.146863
0.0993632
0.177153
0.0998193
0.74281
0.0944166
0.122125
0.166527
0.580176
0.0887355
0.356338
0.0955247
0.609414
0.0922698
0.11463
0.145994
0.0541634
0.123092
0.0563939
0.108388
0.325256
0.102405
0.0978396
0.199868
0.0792102
0.11667
0.110376
0.181264
0.208597
0.0936104
0.212249
0.179804
0.152515
0.134038
0.109264
0.165201
0.12514
0.123268
0.188658
0.108278
0.0784758
0.142499
0.0815188
0.1583
0.0909036
0.140886
0.734122
0.0998879
0.248658
0.116653
0.0877786
0.569251
0.189551
0.107121
0.127329
0.128128
0.121964
0.125868
0.094273
0.141789
0.10565
0.135812
0.0841092
0.120054
0.0886423
0.153592
0.0748483
0.125757
0.185995
0.103482
0.0788091
0.120245
0.06699
0.11756
0.104551
0.153746
0.566932
0.130939
0.0803853
0.145871
0.338055
0.125012
0.0644027
0.111749
0.108751
0.13822
0.0490007
0.100669
0.558295
0.0943834
0.0656612
0.13049
0.0726961
0.122998
0.157767
0.1312
0.309626
0.136578
0.239527
0.11539
0.506016
0.133641
0.0989049
0.150036
0.122563
0.132731
0.635519
0.163638
0.1216
0.142728
0.0654959
0.160063
0.10011
0.164186
0.388315
0.103043
0.0796621
0.12696
0.0807094
0.123005
0.178292
0.168361
0.281698
0.107973
0.0832744
0.147259
0.0897729
0.150035
0.0894949
0.154796
0.55002
0.111764
0.102252
0.115806
0.126516
0.118405
0.17284
0.160949
0.221521
0.176557
0.126062
0.151835
0.0923808
0.134465
0.477958
0.106891
0.103202
0.132883
0.114728
0.148811
0.641931
0.118883
0.402173
0.114166
0.140653
0.179616
0.0606468
0.11337
0.248074
0.118745
0.0647039
0.147813
0.0635761
0.118229
0.105234
0.133212
0.193111
0.134356
0.0575428
0.120442
0.277377
0.15307
0.0543264
0.129062
0.392978
0.10549
0.204699
0.16327
0.141623
0.172827
0.183413
0.124486
0.487631
0.145316
0.104136
0.151115
0.0855514
0.134671
0.315957
0.112704
0.497162
0.103005
0.0814552
0.144959
0.245965
0.12651
0.312322
0.101085
0.0992901
0.123978
0.126254
0.189136
0.412432
0.110811
1.14664
0.0996755
1.14639
0.125652
1.14588
0.154379
1.10408
0.168035
1.10278
0.0932344
1.10256
1.10508
0.53723
0.152419
1.10159
0.142506
0.533867
0.094382
1.10136
0.146289
0.53018
0.670585
1.01133
0.0796079
0.670211
0.113305
0.528449
1.00985
0.16544
0.117888
0.526486
0.0861851
1.00964
0.113811
1.00916
0.160377
0.667136
0.163998
0.663816
0.12269
0.524256
0.128913
1.00846
0.476117
0.330678
0.110676
0.662789
0.129628
1.00774
0.13403
0.660957
0.134696
0.659087
0.3714
0.384173
0.123259
0.324868
0.100734
0.700062
0.0854241
0.369887
0.167751
0.358009
0.700757
0.879064
0.317899
0.290727
0.155104
0.305081
0.120161
0.319294
0.0598382
0.162789
0.87534
0.204857
0.119828
0.69889
0.233144
0.690132
0.111547
0.65802
0.145748
0.277965
0.224778
0.257322
0.182258
0.341515
0.22585
0.276029
0.133039
0.874314
0.115186
0.223368
0.133616
0.873272
0.158486
0.687335
0.337007
0.659193
0.244842
0.293001
0.136138
0.329433
0.297687
0.638301
0.191175
0.306399
0.119797
0.656694
0.136833
0.28772
0.11424
0.87262
0.241712
0.645591
0.14338
0.223567
0.217733
0.264205
0.0903168
0.198829
0.129943
0.871659
0.12441
0.636722
0.822741
0.47231
0.219528
0.236564
0.636462
0.224101
0.153043
0.633498
0.156977
0.633525
0.275145
0.615702
0.0949892
0.822319
0.105622
0.215991
0.118606
0.469803
0.174176
0.565981
0.105109
0.821746
0.571427
0.407525
0.157165
0.463866
0.168518
0.252215
0.103103
0.798874
0.799446
0.352929
0.165703
0.340308
0.163753
0.561375
0.127687
0.376005
0.107706
0.614601
0.251414
0.544036
0.118657
0.798
0.181961
0.609238
0.15724
0.605727
0.493985
0.343353
0.221672
0.446337
0.591175
0.250059
0.380851
0.231702
0.267607
0.5723
0.137333
0.490421
0.192038
0.794276
0.237063
0.471214
0.179775
0.791194
0.182946
0.321683
0.168421
0.364386
0.213506
0.785977
0.27358
0.303319
0.0862503
0.246591
0.191221
0.460475
0.13172
0.569965
0.361832
0.346346
0.107947
0.785298
0.178875
0.34663
0.201728
0.292708
0.215458
0.779854
0.334387
0.392026
0.215371
0.316347
0.425234
0.735202
0.109331
0.422812
0.253628
0.389894
0.719436
0.292485
0.204554
0.317214
0.126785
0.718121
0.194133
0.562356
0.179765
0.26783
0.275834
0.539303
0.127425
0.340498
0.136814
0.384196
0.225066
0.303935
0.214468
0.711687
0.654827
0.430312
0.261118
0.338848
0.169281
0.651034
0.610777
0.363646
0.515223
0.449928
0.172025
0.533405
0.257401
0.49285
0.234302
0.517889
0.285669
0.458523
0.198888
0.415656
0.161127
0.442932
0.202919
0.341231
0.348006
0.37857
0.265699
0.375759
0.299647
0.391472
0.278206
0.489612
0.36501
0.409638
