# vtk DataFile Version 3.0
Tree
ASCII
DATASET POLYDATA
POINTS 1300 float
34443.5 55443.5 6443.45
34181.5 53559.5 10821.5
34260.1 54124.7 9508.08
37151.5 52322.5 13543.5
36168.4 52935.2 12171.5
33191.5 50837.5 17256.4
33371.6 51196 15883.5
28736.5 49352.5 17256.4
29814.9 49843.2 16639.9
25270.5 48857.5 14038.5
36936 52296.4 13426.7
38636.5 49104.5 18245.4
28374.9 49649.2 15595.1
27745.5 51084.5 12306.5
34947.1 52327.1 13456.5
31706.5 52322.5 13295.5
32499.3 52340.9 13016.1
30193.5 52443.4 10943.5
34071.6 54719.7 7708.49
32193.5 53193.4 8693.45
33247.3 50810 17177.2
33191.5 49847.5 19730.4
38646.4 50056.7 16357.1
40615.5 48857.5 17008.4
37506 51359.4 14729.7
36160.5 50589.5 16760.4
31811.1 52258.4 13267.9
29973.5 51332.5 14038.5
28905.2 49440.4 17046
26756.5 48609.5 16760.4
33069.3 50395.2 18151
30963.5 49352.5 19235.4
33140.2 50077.5 19067.1
35913.5 49847.5 20226.4
26154.6 48810.9 14767.9
24528.4 47372.5 15028.5
40109.1 49021.4 17083.7
41358.5 47372.5 18988.4
40582.7 48352 18190.3
40368.5 48362.5 20226.4
27573 48925.2 16868.9
26756.5 47619.5 18493.4
31480.8 49556.1 19279.4
30468.5 48857.5 20968.4
33942.5 52434.6 13089.6
33191.5 53064.5 11810.5
40411.4 48408.1 18959.8
39130.5 49104.5 19730.4
33197.9 49904.7 19642.9
33438.5 49352.5 21711.4
24641.5 47440.5 15104.5
23538.4 46382.5 15523.5
40582.7 48352 18190.3
42843.5 44154.5 16265.5
28387.9 50637.2 13559.6
29230.5 51332.5 12553.5
33273.6 49549.3 21489.5
32200.5 49599.5 28145.5
32214.4 49742.7 27799.8
30963.5 50342.5 34581.5
30566.4 48987.3 20504.3
27745.5 47867.5 21215.4
32204.7 49642.5 28041.8
37398.5 49352.5 32106.5
30554.8 49981.7 33735.6
27498.5 49352.5 38788.5
31052.7 49910 31954.9
24943.5 49193.4 33693.4
40404.9 48348.1 20095.9
40615.5 47867.5 26413.5
37009.8 48970.2 31427.2
42843.5 47124.5 34581.5
26551.6 49027.6 33398.6
23043.4 43907.5 36560.5
28568.2 48914.3 37609
27498.5 44649.5 42995.5
41345.3 47426.4 18899.5
44328.5 44154.5 20968.4
25425.9 49143.7 33605
21063.4 45639.5 29878.5
23974.4 44274.5 35627.7
22548.4 38462.5 36560.5
23210.6 39200.1 36239.5
24528.4 32522.5 36066.5
42267 44497.2 16340.7
42843.5 40689.5 14286.5
23681.2 46387.5 15509.2
19826.4 40937.5 17503.4
41718.9 46860.5 33868.3
46061.5 41679.5 35570.5
29799.9 49576.1 35207.5
33438.5 50589.5 41015.5
24066.2 34217.7 35751.9
23291.4 29552.5 30868.5
24636.9 32794.8 36003.6
28488.5 27572.5 36808.5
23969.3 46703.4 15387.8
22053.4 44649.5 21215.4
21760 45805.4 29945.1
19083.4 42174.5 25670.5
20911.5 41297.9 17434.9
19578.4 34997.5 19978.4
44854.3 42246.8 35180.3
45813.5 35739.5 36066.5
23311.9 30668.8 31113.6
22300.4 28314.5 25175.5
23212.7 29538.5 29126.9
26013.5 24107.4 26908.5
28029.8 28438.3 35967
32448.5 23364.4 34085.5
42670.5 44257.3 16288.1
44576.5 39204.5 18741.4
43730.9 44518.2 21068.1
45813.5 40442.5 25670.5
45438.3 40442.3 25172.7
46555.5 35492.5 28888.5
32201.4 50244.9 39040.8
38388.5 48609.5 39036.5
36921 48770 39661.5
41606.5 46134.5 43491.5
40549.3 46083.8 42734.5
43091.5 40689.5 45470.5
25215.3 25603.3 27124.9
26013.5 23364.4 20968.4
28350.9 27832.2 36556.1
32200.5 28067.5 41015.5
28056.7 48031.2 21335.3
24528.4 46877.5 23443.4
20396.9 38037.4 18092.2
20568.4 33759.5 15771.5
20777.8 34189.9 15832.4
21806.4 29799.5 12801.5
21651.8 30721.6 13838.6
23785.4 25097.5 15276.5
27587.5 45209.3 41291.1
25765.5 39204.5 42748.5
26465.5 39994.2 42320.3
27251.5 33264.5 42500.5
31171.8 24637.2 34240.7
32200.5 20889.4 28641.5
26818 47766.1 22580.9
26013.5 48362.5 26166.5
19970.6 42990.8 27163.7
19330.4 36977.5 27155.5
46080.7 35997.3 28058.5
45318.5 29552.5 30126.5
45153.1 36359.4 36048.2
43833.5 30789.5 37055.5
45281.7 30564.9 29256.2
43585.5 24354.4 27898.5
43878 31669.7 36437.2
41606.5 26334.5 34581.5
43846.9 31053.5 36870
40615.5 31284.5 42500.5
43254.3 25303 28039.1
39625.5 20147.4 26660.5
26173.7 23259.7 21602.8
27745.5 20147.4 16513.4
42840.9 40811.4 14220
43338.5 37719.5 12306.5
43109.6 39141.8 13186.7
45070.5 34502.5 16018.5
44337.5 35884 14759.7
44823.5 30047.5 12801.5
22868 46584.2 31303.1
20568.4 41432.5 32353.5
42328.8 42307.8 44649.7
45318.5 38957.5 41510.5
42156.7 23490.1 27168.5
42348.5 20394.4 21215.4
33241.9 50352.7 40730
35666.5 48609.5 44976.5
26701.3 37975.3 42374.3
28241.5 35739.5 46708.5
40321.9 48127.7 24394.9
37398.5 49352.5 26908.5
45700.9 40442.4 25521.2
45318.5 43164.5 29136.5
42506.1 47045.3 34367.5
43585.5 45639.5 39036.5
41640.4 31478.6 41086.4
42100.5 34997.5 45223.5
32189.9 21592.4 28823.2
33191.5 19652.4 23691.4
32723.4 49556 23528.7
29726.5 48857.5 24928.4
44893.3 41635.5 23501.4
46555.5 36234.5 22700.4
23610.9 33066.9 33868
21063.4 34254.5 30373.5
42085 20252.6 21798.6
41853.5 17919.4 18493.4
23297.5 29887.4 30942
26756.5 26087.5 31858.5
26416 48244.5 25265.8
28488.5 49104.5 27898.5
45750.9 38698.6 26694
46555.5 38709.5 31858.5
22439.2 28853.9 26111.1
20568.4 31037.5 22453.4
42103.6 27273.9 34269.5
41110.5 24354.4 31611.5
30999.4 28139 39969.8
30715.5 30047.5 44233.5
21507.4 42760.2 17305.7
19826.4 41927.5 20226.4
45056.6 34708.8 15993.7
46803.5 32522.5 18988.4
27654.9 46872.3 39314
24776.4 44649.5 39530.5
41851.8 34915.1 44993
41606.5 37719.5 47946.5
41083.2 44951 43309
40943.4 44693.4 47443.4
45125.3 42771.2 28084.9
43091.5 46382.5 29630.5
45615.4 35925.5 36061
46308.5 33759.5 33343.5
23735.6 36654.1 36218.3
25270.5 34502.5 39036.5
40376.7 48273.2 21557.6
37398.5 49352.5 23196.4
20706.6 35325.6 16264.3
21311.4 34749.5 12801.5
43473.1 45492.3 38751.9
44081.5 44154.5 41758.5
27523.9 44601.1 42717.7
27498.5 41679.5 45966.5
40527.4 47945.5 25807.9
42843.5 46877.5 26908.5
37281.9 49237.8 31902.7
35913.5 49352.5 34828.5
43838 30879.3 36992.4
41606.5 28314.5 37798.5
25654.8 31487.8 35992.6
27498.5 30542.5 39283.5
43985.7 40632.3 17668.9
44576.5 38214.5 16513.4
19734.5 37377.4 27070.9
20073.4 34254.5 26908.5
23695.6 42374.4 36099.8
23538.4 40689.5 39530.5
26273 26389 31255.5
28488.5 23364.4 30621.5
35713.2 49232.1 30091.6
38388.5 49352.5 29383.5
38245.4 48520.6 39091.5
40615.5 47619.5 38045.5
23057.4 26960 15034.4
23291.4 25592.5 18493.4
42875.6 45693.1 20572.3
43585.5 45639.5 22948.4
44841.9 32496.9 13184
46308.5 31284.5 10078.5
22357.3 28433.6 25268.9
22548.4 27819.5 22700.4
30506.7 30143.9 43695.5
29726.5 32027.5 45966.5
22051.2 45111.6 20770.8
20815.4 44649.5 23691.4
21085.8 41638.6 32030.7
20568.4 38709.5 32106.5
42121.2 29080.1 37724.7
39873.5 28809.5 40025.5
43532.6 45480.8 22480
44576.5 44402.5 24185.4
19794.3 35898.5 19648.7
19330.4 35492.5 22948.4
28001.9 47648.2 38666.1
28241.5 48114.5 41758.5
27964.1 36620.4 45815.5
29230.5 37719.5 48688.5
26134.3 48327.1 25896.3
23043.4 47372.5 27155.5
44739.6 39692.1 41571.2
45813.5 38709.5 39036.5
38133.3 47526 41748.3
38140.5 46629.5 44480.5
28799.9 37345.8 47711.7
30715.5 35244.5 49431.5
19336.3 42424.5 25905.5
19083.4 42422.5 22948.4
42145 34248.9 43524.8
43585.5 37224.5 44233.5
23479.1 46244.6 17174
24776.4 46629.5 18988.4
31707.5 49837.9 30317.3
33685.5 49847.5 32600.5
20832.8 39271 32360.1
21311.4 36234.5 34085.5
23853.4 25201.7 15247.3
25270.5 22622.4 15523.5
45789.8 38542.4 22104
46061.5 37472.5 20968.4
21123 32604.2 15424
21558.4 29552.5 16760.4
25349.4 31879.9 35995.9
25023.5 29057.5 33591.5
21752.4 45130.1 21968.2
22300.4 46134.5 23691.4
38500.3 48361 32412.9
39130.5 48857.5 35570.5
22381.9 28559.7 25521.6
23785.4 25839.5 24433.4
44079.6 43653.4 21798.1
45318.5 41927.5 20968.4
46401.2 35639.2 28792
46555.5 35244.5 31363.5
41848 32912.5 42575.9
41110.5 32769.5 45470.5
44520.9 38694.1 16964
45318.5 36977.5 17503.4
23558.1 41092.4 37709.7
23291.4 38957.5 38293.5
32222.3 22368.6 30615.7
34675.5 20394.4 29630.5
21140.6 44902.5 23399.7
21063.4 45392.5 25423.5
42727.4 22458 24483.2
43833.5 22622.4 22948.4
27470.8 42121.8 44985.3
27251.5 39204.5 45223.5
20736.5 40189.3 17658.4
19083.4 39452.5 19978.4
42366.2 20380.1 21317
43585.5 20889.4 19483.4
29816.8 27695.4 38028.7
32200.5 26087.5 38540.5
45155.2 37136.8 17582.7
45813.5 34997.5 18741.4
29799.9 49576.1 35207.5
26013.5 49352.5 36560.5
27465.8 34117.9 42816.9
28488.5 32274.5 43738.5
38104.3 48583.5 31979.7
40615.5 48362.5 31363.5
41571.7 25098.9 31977.4
42100.5 24354.4 30126.5
27812.6 20629.2 17863.1
29973.5 18662.4 16760.4
26054.6 48350.5 26074.6
25023.5 48857.5 29136.5
25259.2 44628.6 39409.4
24033.4 42669.5 39283.5
41207.9 44548.9 45831
42443.4 42943.4 47443.4
27960 48989.1 27746.9
28488.5 49599.5 30373.5
35482.9 49011.3 43225
36903.5 48362.5 43738.5
30498.7 48885.8 20864.6
30221.5 48362.5 22700.4
45260.5 43046.5 28821
46061.5 41679.5 31115.5
23385.4 26632.1 24604.9
23785.4 26087.5 22453.4
43345.7 30350.9 35786.9
44943.4 29193.5 33193.4
24018.5 47967.8 31959.2
23291.4 48114.5 29878.5
23614.6 25729.2 15183.4
23785.4 24602.4 13543.5
38248.4 48958.4 25820.8
36160.5 49599.5 25423.5
43647.8 44303.3 35233
44576.5 43659.5 37055.5
40268.2 20977.5 26342.7
39130.5 19404.4 24433.4
33020.5 49552.3 22427.5
34675.5 49352.5 23938.4
19211.8 42179.9 25752.8
18588.4 39947.5 24681.4
41216.4 24381.3 31622
40615.5 22869.4 30868.5
42871.3 41867.6 15025.4
44328.5 40194.5 15276.5
19904.9 39130.9 27748.1
20073.4 37224.5 29383.5
24890.8 35222 38587.4
25518.5 35492.5 41263.5
36786.9 49407.2 25542.7
34923.5 49599.5 27403.5
22285.8 44987.4 31722.6
21806.4 43907.5 34333.5
32490.4 21010.4 27283.7
34428.5 19899.4 26908.5
20761 40534.7 17470.3
20073.4 38709.5 16265.5
28568.2 48914.3 37609
25765.5 47867.5 38293.5
29729.3 31726.8 45318.6
28241.5 33512.5 45718.5
22185 46147.4 30332.1
22053.4 46629.5 28393.5
25179.6 34603.6 38908.5
25518.5 33017.5 39036.5
45402 40227.3 22331.8
45813.5 39699.5 20721.4
23658.9 43060.6 35837
21558.4 41184.5 35076.5
30769.4 26791.7 37954.8
31458.5 25344.5 37055.5
45596 41140.5 26615.5
46061.5 40937.5 28393.5
27548.5 45730.7 40829.6
26756.5 45887.5 42748.5
44464.3 44384.1 24122.8
45070.5 43412.5 25423.5
24573.9 45918.4 35472.8
23538.4 45392.5 37303.5
28469.7 23722 30493.3
29973.5 22127.4 29878.5
41111.2 47198.7 33263.3
43585.5 46382.5 32353.5
23630.7 40839 39098.2
24776.4 41184.5 40768.5
38966.7 48681.3 25485.6
38883.5 48857.5 27651.5
21660.9 33691.9 30952.7
[...]
CELL_DATA 1299
SCALARS radius float
LOOKUP_TABLE default
77.463
83.3262
69.4326
77.463
57.8555
62.2346
50
53.7845
44.8166
72.0123
57.8555
48.2088
43.2111
72.0123
55.7829
60.0051
57.8555
92.9635
89.6332
60.0051
48.2088
60.0051
53.7845
66.9452
60.0051
57.8555
53.7845
51.8578
48.2088
57.8555
53.7845
53.7845
48.2088
46.4818
41.6631
55.7829
46.4818
51.8578
44.8166
50
44.8166
55.7829
48.2088
66.9452
64.547
50
48.2088
50
44.8166
43.2111
36.0062
50
41.6631
44.8166
40.1706
48.2088
38.7315
41.6631
31.1173
51.8578
43.2111
40.1706
31.1173
32.2735
25.9289
33.4726
25.9289
46.4818
34.7163
33.4726
25
28.9278
25
26.8923
19.3657
48.2088
38.7315
26.8923
20.0853
26.8923
21.6055
23.2409
18.0031
46.4818
40.1706
37.344
27.8914
26.8923
21.6055
30.0026
25
20.0853
15.5587
19.3657
13.9457
38.7315
27.8914
20.8316
15.5587
31.1173
23.2409
23.2409
20.0853
17.3581
11.6204
15.5587
12.9644
16.1367
12.0522
43.2111
34.7163
40.1706
32.2735
34.7163
27.8914
26.8923
18.672
21.6055
18.0031
19.3657
16.1367
13.4461
11.6204
15.0013
12.5
46.4818
38.7315
27.8914
24.1044
25
20.0853
21.6055
18.672
21.6055
16.7363
18.672
16.1367
12.5
9.68287
41.6631
34.7163
17.3581
13.4461
31.1173
27.8914
21.6055
15.5587
28.9278
22.4083
18.0031
14.4639
16.7363
13.4461
24.1044
20.8316
12.5
11.6204
41.6631
36.0062
37.344
32.2735
36.0062
31.1173
22.4083
17.3581
18.0031
15.5587
22.4083
17.3581
25.9289
23.2409
17.3581
13.9457
38.7315
31.1173
33.4726
24.1044
25.9289
20.0853
15.0013
12.0522
10.0426
9.00154
44.8166
41.6631
37.344
27.8914
19.3657
15.5587
18.672
17.3581
16.1367
13.9457
38.7315
32.2735
33.4726
27.8914
12.9644
10.4158
15.0013
12.0522
12.9644
10.8028
32.2735
30.0026
33.4726
31.1173
24.1044
20.8316
12.5
10.8028
18.672
16.7363
25.9289
22.4083
20.8316
19.3657
21.6055
17.3581
41.6631
38.7315
25.9289
24.1044
21.6055
19.3657
20.0853
16.7363
36.0062
33.4726
32.2735
28.9278
16.1367
13.9457
18.0031
16.1367
37.344
34.7163
14.4639
12.9644
24.1044
20.0853
15.0013
12.5
34.7163
32.2735
19.3657
16.7363
20.8316
20.0853
43.2111
38.7315
32.2735
28.9278
12.0522
11.6204
11.2042
10.4158
30.0026
25.9289
18.672
16.1367
14.4639
13.4461
40.1706
36.0062
25
22.4083
25
21.6055
15.0013
12.9644
37.344
31.1173
16.7363
15.0013
20.0853
19.3657
13.4461
12.5
16.7363
15.5587
12.9644
12.0522
36.0062
34.7163
37.344
32.2735
17.3581
15.5587
19.3657
16.7363
31.1173
28.9278
23.2409
20.0853
18.672
18.0031
28.9278
27.8914
31.1173
28.9278
12.5
11.6204
38.7315
34.7163
30.0026
26.8923
13.4461
11.6204
36.0062
33.4726
22.4083
20.8316
10.8028
10.4158
27.8914
26.8923
20.0853
19.3657
18.0031
16.7363
28.9278
24.1044
18.0031
16.7363
13.4461
12.0522
34.7163
33.4726
28.9278
25
16.7363
15.0013
32.2735
30.0026
12.9644
12.0522
12.0522
11.6204
36.0062
34.7163
21.6055
19.3657
18.0031
16.7363
33.4726
31.1173
25
23.2409
50
48.2088
25
23.2409
12.0522
11.2042
17.3581
15.5587
24.1044
23.2409
20.0853
19.3657
33.4726
31.1173
24.1044
21.6055
21.6055
20.8316
46.4818
44.8166
16.1367
15.0013
12.5
12.0522
43.2111
40.1706
15.0013
14.4639
18.672
17.3581
32.2735
28.9278
20.8316
18.672
9.68287
9.00154
30.0026
27.8914
25.9289
25
10.8028
9.68287
21.6055
20.8316
18.0031
16.7363
33.4726
32.2735
25
22.4083
12.9644
12.0522
28.9278
26.8923
22.4083
21.6055
37.344
34.7163
27.8914
26.8923
12.9644
12.5
27.8914
25
21.6055
19.3657
36.0062
34.7163
16.7363
15.5587
16.1367
15.5587
25.9289
25
20.0853
19.3657
32.2735
31.1173
27.8914
25.9289
46.4818
44.8166
22.4083
21.6055
14.4639
13.9457
23.2409
22.4083
23.2409
22.4083
48.2088
44.8166
17.3581
16.7363
16.7363
16.1367
19.3657
18.672
19.3657
18.672
34.7163
33.4726
20.8316
20.0853
46.4818
44.8166
28.9278
27.8914
17.3581
16.7363
30.0026
28.9278
14.4639
13.4461
44.8166
40.1706
31.1173
30.0026
13.9457
13.4461
34.7163
32.2735
11.6204
11.2042
16.1367
15.5587
16.1367
15.5587
46.4818
44.8166
25
23.2409
16.7363
16.1367
26.8923
25.9289
18.0031
16.7363
28.9278
27.8914
20.8316
20.0853
74.6879
69.4326
15.5587
15.0013
17.3581
16.1367
25.9289
25
17.3581
16.1367
32.2735
31.1173
14.4639
13.9457
32.2735
30.0026
18.672
17.3581
26.8923
25
18.672
18.0031
31.1173
30.0026
10.8028
10.4158
13.9457
13.4461
24.1044
23.2409
14.4639
13.9457
28.9278
27.8914
11.6204
11.2042
21.6055
19.3657
12.5
12.0522
25.9289
25
10.0426
9.68287
23.2409
22.4083
16.7363
16.1367
30.0026
27.8914
13.4461
12.9644
33.4726
32.2735
15.0013
14.4639
19.3657
18.672
14.4639
13.9457
25
24.1044
62.2346
60.0051
30.0026
28.9278
57.8555
55.7829
28.9278
27.8914
60.0051
57.8555
22.4083
20.8316
41.6631
40.1706
24.1044
23.2409
44.8166
43.2111
24.1044
23.2409
62.2346
57.8555
30.0026
28.9278
50
48.2088
20.0853
19.3657
48.2088
46.4818
16.1367
15.5587
43.2111
41.6631
28.9278
27.8914
44.8166
43.2111
20.0853
18.0031
41.6631
40.1706
19.3657
18.672
34.7163
33.4726
25
24.1044
36.0062
34.7163
18.672
18.0031
38.7315
37.344
16.7363
16.1367
34.7163
33.4726
26.8923
25
32.2735
31.1173
22.4083
20.8316
40.1706
38.7315
23.2409
22.4083
41.6631
38.7315
25.9289
25
43.2111
40.1706
13.9457
13.4461
43.2111
41.6631
11.6204
10.8028
34.7163
33.4726
15.5587
15.0013
38.7315
36.0062
16.7363
15.5587
31.1173
30.0026
16.1367
15.5587
40.1706
38.7315
12.5
12.0522
30.0026
28.9278
15.0013
14.4639
31.1173
30.0026
25
24.1044
32.2735
31.1173
13.9457
13.4461
30.0026
28.9278
16.7363
16.1367
28.9278
26.8923
20.8316
20.0853
36.0062
34.7163
23.2409
22.4083
34.7163
32.2735
20.0853
18.0031
30.0026
28.9278
18.672
17.3581
25
24.1044
15.5587
14.4639
34.7163
32.2735
12.5
11.6204
33.4726
32.2735
20.0853
19.3657
24.1044
23.2409
11.6204
11.2042
25.9289
25
19.3657
18.0031
33.4726
32.2735
22.4083
21.6055
33.4726
32.2735
14.4639
13.9457
28.9278
27.8914
18.0031
16.7363
26.8923
25.9289
17.3581
16.7363
30.0026
28.9278
15.5587
15.0013
16.1367
15.5587
10.4158
10.0426
36.0062
34.7163
17.3581
16.7363
15.5587
15.0013
16.1367
15.5587
25
24.1044
64.547
62.2346
31.1173
30.0026
60.0051
57.8555
13.4461
12.9644
89.6332
86.4222
23.2409
22.4083
44.8166
43.2111
23.2409
22.4083
41.6631
40.1706
18.0031
17.3581
36.0062
34.7163
23.2409
22.4083
37.344
34.7163
19.3657
18.672
31.1173
30.0026
14.4639
13.9457
23.2409
22.4083
50
48.2088
27.8914
26.8923
37.344
36.0062
25.9289
25
27.8914
26.8923
16.1367
15.5587
28.9278
27.8914
18.0031
17.3581
16.7363
16.1367
40.1706
38.7315
20.8316
20.0853
33.4726
32.2735
18.672
18.0031
33.4726
32.2735
17.3581
16.1367
36.0062
34.7163
20.0853
19.3657
18.672
18.0031
15.0013
14.4639
30.0026
28.9278
13.9457
13.4461
28.9278
26.8923
50
48.2088
21.6055
20.8316
37.344
36.0062
18.672
18.0031
27.8914
26.8923
17.3581
16.7363
20.0853
19.3657
40.1706
38.7315
15.5587
15.0013
40.1706
38.7315
17.3581
16.7363
19.3657
18.0031
36.0062
34.7163
20.0853
19.3657
32.2735
31.1173
12.0522
11.6204
32.2735
31.1173
16.7363
16.1367
27.8914
25.9289
41.6631
40.1706
17.3581
16.7363
32.2735
31.1173
20.8316
20.0853
25.9289
25
11.6204
11.2042
31.1173
28.9278
37.344
36.0062
20.8316
20.0853
36.0062
34.7163
12.0522
11.2042
20.8316
20.0853
86.4222
83.3262
16.7363
16.1367
34.7163
33.4726
11.2042
10.4158
20.0853
19.3657
36.0062
34.7163
13.9457
12.9644
20.0853
19.3657
12.9644
12.5
26.8923
25
25
24.1044
16.7363
16.1367
27.8914
26.8923
27.8914
26.8923
15.5587
15.0013
22.4083
21.6055
31.1173
30.0026
24.1044
23.2409
25.9289
25
27.8914
26.8923
17.3581
16.7363
27.8914
26.8923
38.7315
37.344
69.4326
66.9452
19.3657
18.672
36.0062
34.7163
10.4158
10.0426
30.0026
28.9278
30.0026
28.9278
74.6879
72.0123
20.8316
20.0853
24.1044
23.2409
44.8166
43.2111
22.4083
21.6055
34.7163
32.2735
53.7845
51.8578
23.2409
22.4083
30.0026
28.9278
51.8578
50
20.8316
20.0853
32.2735
31.1173
46.4818
44.8166
11.2042
10.8028
31.1173
28.9278
41.6631
40.1706
26.8923
25.9289
30.0026
28.9278
41.6631
40.1706
21.6055
20.8316
26.8923
25.9289
46.4818
44.8166
15.5587
15.0013
25
24.1044
33.4726
32.2735
13.4461
12.9644
24.1044
23.2409
36.0062
34.7163
80.3411
77.463
24.1044
23.2409
28.9278
27.8914
36.0062
34.7163
19.3657
18.672
21.6055
20.8316
26.8923
25.9289
44.8166
43.2111
18.0031
17.3581
13.9457
13.4461
13.9457
13.4461
40.1706
38.7315
20.8316
20.0853
18.0031
17.3581
24.1044
23.2409
18.672
18.0031
25.9289
25
26.8923
25.9289
18.0031
17.3581
18.0031
17.3581
20.8316
20.0853
22.4083
21.6055
25.9289
25
23.2409
22.4083
27.8914
26.8923
20.8316
20.0853
11.2042
10.8028
20.0853
19.3657
17.3581
16.7363
16.1367
15.5587
22.4083
21.6055
27.8914
26.8923
16.1367
15.5587
17.3581
16.7363
16.7363
16.1367
16.7363
16.1367
12.0522
11.6204
24.1044
23.2409
25.9289
25
21.6055
20.8316
22.4083
21.6055
21.6055
20.8316
23.2409
22.4083
18.672
18.0031
20.8316
20.0853
18.0031
17.3581
20.8316
20.0853
14.4639
13.9457
16.1367
15.5587
14.4639
13.9457
18.0031
17.3581
13.4461
12.9644
15.0013
14.4639
12.5
12.0522
15.0013
14.4639
23.2409
22.4083
24.1044
23.2409
16.7363
16.1367
18.672
18.0031
13.9457
13.4461
14.4639
13.9457
18.672
18.0031
12.5
12.0522
16.7363
16.1367
13.9457
13.4461
20.8316
20.0853
17.3581
16.7363
13.4461
12.9644
12.0522
11.6204
19.3657
18.672
13.9457
13.4461
24.1044
23.2409
20.8316
20.0853
11.2042
10.8028
12.0522
11.6204
13.9457
13.4461
18.0031
17.3581
15.5587
15.0013
12.9644
12.5
11.6204
11.2042
18.672
18.0031
17.3581
16.7363
9.33599
9.00154
17.3581
16.7363
18.0031
17.3581
15.5587
15.0013
9.33599
9.00154
16.1367
15.5587
17.3581
16.7363
16.1367
15.5587
13.4461
12.9644
13.9457
13.4461
10.8028
10.4158
14.4639
13.4461
13.9457
13.4461
15.5587
15.0013
12.0522
11.6204
12.5
12.0522
12.5
12.0522
12.9644
12.5
12.0522
11.6204
25.9289
25
14.4639
13.9457
66.9452
64.547
64.547
62.2346
55.7829
53.7845
62.2346
60.0051
57.8555
55.7829
43.2111
41.6631
96.4176
92.9635
80.3411
77.463
64.547
62.2346
69.4326
66.9452
69.4326
66.9452
72.0123
69.4326
51.8578
50
48.2088
46.4818
40.1706
38.7315
48.2088
46.4818
40.1706
38.7315
34.7163
33.4726
41.6631
40.1706
44.8166
43.2111
37.344
36.0062
40.1706
38.7315
38.7315
37.344
37.344
36.0062
37.344
36.0062
36.0062
34.7163
34.7163
33.4726
26.8923
25.9289
32.2735
31.1173
25.9289
25
55.7829
53.7845
51.8578
50
43.2111
41.6631
33.4726
32.2735
18.672
18.0031
12.9644
12.5
53.7845
51.8578
33.4726
32.2735
31.1173
30.0026
18.0031
17.3581
22.4083
21.6055
55.7829
53.7845
38.7315
37.344
33.4726
32.2735
16.1367
15.5587
43.2111
41.6631
30.0026
28.9278
22.4083
21.6055
64.547
62.2346
31.1173
30.0026
100
96.4176
20.0853
19.3657
