# vtk DataFile Version 3.0
Tree
ASCII
DATASET POLYDATA
POINTS 1300 float
34443.5 55443.5 6443.45
33438.5 52817.5 12801.5
33740 53605.3 10894.1
37151.5 52322.5 13543.5
33518.5 52839.7 12700.4
33191.5 50837.5 17256.4
33289.6 51438.1 15889.6
28736.5 49352.5 17256.4
29791.5 49912.3 16641.6
25270.5 48857.5 14038.5
36301.8 52269.6 13380.4
38636.5 49104.5 18245.4
33681.1 54151.8 9316.46
29230.5 51827.5 11563.5
33236.1 50902.9 17154
33191.5 49847.5 19730.4
33208.5 50248.5 18751.4
35913.5 49847.5 20226.4
30536.2 52385.8 11303.3
29973.5 51332.5 14038.5
38283.2 49924.5 16758.7
40615.5 48857.5 17008.4
33201.3 50080.1 19162.6
31211.5 49352.5 19978.4
37213.3 50862.9 15580
36160.5 50094.5 17750.4
27277.9 49512.8 14806.8
26756.5 50094.5 13048.5
28687.9 49622 16162.8
26756.5 48609.5 16760.4
25738.7 48940.3 14326.8
23785.4 47372.5 15028.5
40002.8 49057.6 17075.8
41358.5 47372.5 18988.4
40528.5 48370.5 18186.3
40368.5 48362.5 20226.4
27307 48828.8 16711.4
26756.5 47619.5 18493.4
33212.8 49907.1 19639.1
33438.5 49352.5 21711.4
40976.7 47831.6 18619.4
42843.5 44154.5 16265.5
33477.3 49537.6 20972.3
35170.5 49104.5 21958.4
26896.9 47927.9 18350.8
26756.5 47619.5 19978.4
33454.8 53021.7 12227.2
31706.5 52322.5 13295.5
26974.3 49998 13497.7
27745.5 51084.5 12306.5
26773.1 47801.4 19852.1
26261.5 48609.5 26660.5
25905.2 48421 26191.3
23943.5 48693.4 32693.5
34812.4 49245.3 21997
38883.5 48857.5 27651.5
24532 48611.7 30742.8
21311.4 43164.5 33343.5
41342.5 47437.1 18890.9
43338.5 45639.5 19730.4
37155 49033.7 25899.5
35418.5 49352.5 32106.5
35627.8 49458.2 31991.2
34181.5 50094.5 38788.5
42500.2 46394.5 19377.8
43091.5 46134.5 22453.4
38660.2 48663.1 27520.9
43091.5 46877.5 32600.5
24309.4 48602.5 32295.5
25765.5 47867.5 38293.5
25699.9 47408.5 37511.5
27498.5 44649.5 42995.5
42396.7 44303.7 16336.2
43338.5 39699.5 13295.5
22406.4 45016.5 32459.3
19330.4 41184.5 28393.5
35075.8 49698.9 37822.8
36408.5 49104.5 43738.5
24183 47512 15157.4
22300.4 44897.5 17503.4
41859.2 47094 30845.7
46061.5 41679.5 31115.5
21797.7 43511.4 33245.9
22548.4 38462.5 36560.5
22622.9 38994.1 35596.4
24528.4 32522.5 36066.5
26154.6 48553 26519.7
31211.5 49104.5 26166.5
22358.3 44945 17216.5
19083.4 40194.5 19978.4
20230.4 41422.3 29110
19826.4 35492.5 25670.5
19996.1 37983 27115.1
21558.4 32274.5 30373.5
21552.4 33053.5 29320.6
24528.4 26829.5 29136.5
42709.5 44199.3 16286.7
44823.5 40937.5 17750.4
44238.3 41451.3 17246.7
45070.5 34997.5 16513.4
44873.7 42029.4 30984
46308.5 35739.5 30868.5
42676.3 46869.8 32410.5
43585.5 45639.5 39036.5
19978.7 35786.5 25943.7
21311.4 29552.5 23691.4
21647.1 30206.6 23953.9
24528.4 25097.5 22206.4
22570.8 38622 36271.3
25765.5 36977.5 42253.5
25318.9 36763.1 40915.5
28736.5 32274.5 44233.5
43061.5 46018.1 21784.8
45070.5 43412.5 25423.5
44743.4 36513.1 16047.7
44576.5 31532.5 11563.5
35506.4 49396.9 32058.1
29973.5 50589.5 35323.5
45878.1 37626.5 30903.2
45566.5 33759.5 36560.5
45338.7 34803.6 35795.5
43338.5 33759.5 42006.5
24764.1 32897.4 36022.8
27003.5 28314.5 36313.5
28005 33259.3 43062.6
32200.5 28067.5 41015.5
26725.1 29111.5 35773
29973.5 23859.4 33096.5
44647.9 41091.6 17599.3
45070.5 41184.5 21711.4
44893 41145.5 19984.3
46555.5 36234.5 22700.4
45522.1 35763.4 34132.1
45813.5 38709.5 39036.5
46099.3 35919.7 30827.8
45318.5 29552.5 30126.5
21412.1 29748.7 23770.1
22300.4 27819.5 17256.4
45153.7 30084.5 29837.5
43585.5 24354.4 27898.5
45457.6 38226 38474.5
43833.5 40937.5 44480.5
45269.1 29712.1 30039.8
41606.5 26334.5 34581.5
43216.5 25161.3 28210.5
39625.5 20147.4 26660.5
22407.2 27682.1 18599.3
24776.4 23117.4 14286.5
25758.9 37011.8 42147.8
27745.5 38462.5 46955.5
43056 46116.1 22360.7
42843.5 46877.5 26908.5
22366.6 27734.3 18089
20568.4 33759.5 15771.5
25745.8 47729.8 38058.9
29230.5 50094.5 39530.5
42132.3 23398.7 27279.1
42348.5 20394.4 21215.4
42598.3 27470.4 33650.9
40863.5 28809.5 39778.5
43536.7 34493.6 41358.2
41853.5 35987.5 46461.5
39976.2 21056.7 26854.2
34428.5 19899.4 26908.5
27387.2 37823.8 45758.6
30715.5 35244.5 49431.5
26512.7 47987.3 21753.8
22300.4 46134.5 23691.4
21275 31101 17449.7
19578.4 34997.5 19978.4
22300.6 27913.4 17381.7
21806.4 29799.5 12801.5
44123.1 40459.2 42734.1
41358.5 45144.5 43985.5
36092.8 20246.6 26892.2
33438.5 21879.4 30868.5
30760 49180.2 26597.6
33933.5 49847.5 27403.5
45500.2 36600.6 35608.5
46061.5 41679.5 35570.5
25131.3 47464.8 35940.3
24033.4 42669.5 39283.5
42042.5 43826.5 43906.1
39873.5 45392.5 47946.5
31709.3 49490.6 19936.4
30221.5 48362.5 22700.4
21023.2 42599.4 17939.5
20073.4 38709.5 16265.5
35263.5 49617.1 35840.1
39378.5 48362.5 38788.5
42077.9 20226.1 21830.6
41853.5 17919.4 18493.4
24309 24210.4 15671.5
27745.5 20147.4 16513.4
23125.9 46218.9 22994.9
20073.4 43164.5 22453.4
22045.2 42156.2 33951.1
20568.4 38709.5 32106.5
36291.2 48918.5 42245.1
38140.5 46629.5 44480.5
28264.8 27200.8 35160.6
31458.5 25592.5 36560.5
45154.2 41103.1 21591.8
46061.5 40689.5 24681.4
45815.6 34169.1 30530.7
45813.5 32027.5 33343.5
43398 33979.7 41812
40615.5 31284.5 42500.5
33952.4 21431.4 29666
29973.5 22127.4 29878.5
25878 48224 24994.1
23043.4 47372.5 27155.5
21100.4 39656.4 32844.5
21311.4 36234.5 34085.5
43452.9 26366.6 29087
40615.5 22869.4 30868.5
22320.1 44913.7 17405.9
21806.4 44402.5 20226.4
45098.6 35256.2 16553.9
46803.5 32522.5 18988.4
45334.7 34058 36224.1
43833.5 30789.5 37055.5
24322.2 25630.7 21932.5
26261.5 22622.4 19730.4
40278.9 48365.8 20107.4
39625.5 48362.5 23691.4
22463.2 46078.7 23662.4
20321.4 44897.5 26908.5
29087.5 49596.4 39385.4
31706.5 50342.5 40273.5
24643.3 43196.8 39104.7
25270.5 40442.5 41510.5
43218 46341 25826.7
44328.5 45392.5 28145.5
25163.7 48524 28649.1
27993.5 50342.5 31611.5
44283.9 31770 36806.1
43091.5 31284.5 39778.5
24230 27561.1 28556.8
26013.5 24107.4 26908.5
44098.7 45489.6 27484.6
45566.5 42917.5 28145.5
45571.6 32363.1 32687.9
44081.5 30294.5 34085.5
42752.5 34918.2 43508.8
41110.5 32769.5 45470.5
38028 48818.8 26839.9
40368.5 48362.5 26166.5
20891.5 33074 15875.9
21311.4 34749.5 12801.5
26541.3 46762.4 39586.8
28241.5 48114.5 41758.5
26798.6 47712 18450.6
24776.4 46629.5 18988.4
19600.4 41255.8 28608.5
19083.4 42174.5 25670.5
21643.3 32461.9 30229.3
22795.4 31779.5 32600.5
24539.6 27132.4 29045.9
26756.5 26087.5 31858.5
39604.9 48212.1 28754.8
39130.5 48609.5 31611.5
24313.9 42912.1 39201.3
22795.4 41927.5 37055.5
24394.8 34513.3 36529.9
26013.5 32027.5 39036.5
31712.1 49380.4 26839.4
32448.5 49599.5 29630.5
43415.7 41604.1 43132.6
44081.5 44154.5 41758.5
27199.6 44602.2 42662.6
27251.5 42669.5 44728.5
45185.4 43364.4 27690.8
45813.5 41432.5 26908.5
38163.6 48631.9 38304.2
38636.5 47867.5 41015.5
34927.8 20003.6 26903.6
33191.5 19652.4 23691.4
45713.2 41711.5 27223.7
46308.5 39699.5 27651.5
24804.4 42074.2 39916.4
24033.4 39947.5 39530.5
26920 28553.6 36151.4
28983.5 28562.5 38788.5
45220.2 32566.3 12052.7
46308.5 31284.5 10078.5
43842.1 27930.9 31560.1
42843.5 25592.5 31858.5
26990.5 34834.4 42562.3
28241.5 34749.5 45470.5
19607.1 40532 19323.9
19083.4 37967.5 19235.4
42987.8 34790.8 42863.6
43585.5 37224.5 44233.5
27752.1 20541.8 16410.4
29973.5 18662.4 16760.4
39530.4 48492.3 31132.5
40368.5 48609.5 33343.5
22681.9 30755 29570.7
23291.4 29552.5 30868.5
43183.7 45695.9 19780.3
44328.5 44154.5 20968.4
19872.1 35580.7 25752.5
19330.4 35492.5 22948.4
23150.5 29516.4 28785.6
23043.4 28067.5 25918.5
24867.1 46836.3 21831.8
23538.4 45392.5 20968.4
40043 48593.5 32869.3
39130.5 48857.5 35570.5
42774.2 26074.4 31926.3
41110.5 24602.4 32600.5
43140.7 39834.8 13518.7
43338.5 37719.5 12306.5
45649.3 41153.6 35510.5
45070.5 44154.5 35323.5
23107 27411.5 23730.8
23785.4 25839.5 24433.4
44756.8 40996.1 17693
45070.5 38957.5 18493.4
26943.1 49778.8 31039.5
26756.5 50342.5 34085.5
42036.1 36173.1 46050.5
41606.5 37719.5 47946.5
26215.5 49029 29527.5
28736.5 49352.5 29630.5
42595.6 22419.9 24758.9
43833.5 22622.4 22948.4
30624.4 22313.6 30032.2
28241.5 23859.4 30868.5
23334.7 47304 27102.5
22053.4 46629.5 28393.5
22993.8 26633 17532.3
23043.4 26829.5 15276.5
43751.8 41031.8 44214.2
42443.4 42943.4 47443.4
27850.1 50164.5 31448.5
30221.5 50094.5 31611.5
23897.5 24928.3 16052.9
23785.4 24602.4 13543.5
38470.6 48709.8 27316.6
38388.5 49352.5 29383.5
42372.9 20371.2 21311.3
43585.5 20889.4 19483.4
29790.3 24825.9 33874.8
32448.5 23364.4 34085.5
36854.3 49306.7 30616.1
37398.5 49352.5 32106.5
45008.5 38758 40153.6
44823.5 37719.5 42253.5
35661.1 49192.5 23193.2
37398.5 49352.5 23196.4
19238.5 41898.9 26551.9
18588.4 39947.5 24681.4
24096.2 36948 38345.9
25270.5 34502.5 39036.5
21866.1 44461.5 19422.5
20568.4 43164.5 20226.4
20538.1 32393.1 18937.4
19826.4 32522.5 21463.4
39730.7 20420.2 26718.6
39130.5 19404.4 24433.4
36306.3 49293.1 28180.1
34923.5 49599.5 29383.5
21601.5 32734 29811.3
21311.4 34007.5 32106.5
25318.6 31125.6 35448.6
25023.5 29057.5 33591.5
23177.4 47341 27131.1
22053.4 46629.5 26166.5
21019.2 32016.8 25210.1
21311.4 30294.5 26166.5
28239.9 28732.9 38213.6
28241.5 29799.5 40521.5
21550.3 45490.4 24681.5
20073.4 44154.5 24681.4
42146.2 29154.6 37492
42348.5 30047.5 38540.5
29517.2 31407.8 42673.8
30715.5 30047.5 44233.5
19302.8 39228.6 19399.6
18588.4 38214.5 20968.4
41366.3 29039.4 38996
41358.5 30294.5 40521.5
43488.4 41418.7 15267.5
44328.5 40194.5 15276.5
39821.2 48611.1 33971
41110.5 47619.5 36066.5
26821.1 44914.9 41878.8
25765.5 42669.5 42995.5
44208.9 45487.6 28007.4
44081.5 46134.5 30373.5
31618.7 50231.2 40297.8
33438.5 50589.5 41015.5
30672.2 26170.9 36563.3
32200.5 26087.5 38540.5
35939.5 49430.2 31445.4
33685.5 49847.5 31363.5
41443.5 32224 42495
40368.5 32027.5 43985.5
27179.8 49092.3 29361.9
28241.5 48857.5 28145.5
23726.1 42785.6 38252.2
23043.4 43907.5 36560.5
25341.1 40767.8 41404.2
26261.5 39699.5 43243.5
20598.4 44908 26183.4
19578.4 43659.5 26660.5
36268.2 48977.5 43448.9
35666.5 48609.5 44976.5
20183.5 43396.5 22801.5
19083.4 42422.5 22948.4
24952.6 32295 35827.6
24033.4 31532.5 34581.5
45034.1 41122.6 20852.4
45070.5 42669.5 21711.4
44042.4 45127.8 36620.5
44823.5 44154.5 37798.5
25570.5 26386.5 29990
[...]
CELL_DATA 1299
SCALARS radius float
LOOKUP_TABLE default
64.547
74.6879
69.4326
66.9452
53.7845
57.8555
48.2088
50
40.1706
72.0123
53.7845
86.4222
77.463
55.7829
46.4818
51.8578
46.4818
80.3411
72.0123
55.7829
50
50
44.8166
62.2346
57.8555
43.2111
40.1706
44.8166
41.6631
41.6631
34.7163
51.8578
43.2111
48.2088
41.6631
43.2111
36.0062
48.2088
43.2111
46.4818
38.7315
44.8166
40.1706
40.1706
36.0062
69.4326
62.2346
41.6631
40.1706
38.7315
26.8923
28.9278
22.4083
41.6631
31.1173
25
19.3657
44.8166
40.1706
36.0062
24.1044
25.9289
20.0853
43.2111
37.344
32.2735
24.1044
23.2409
20.0853
21.6055
16.7363
43.2111
34.7163
21.6055
16.1367
21.6055
17.3581
36.0062
28.9278
28.9278
25.9289
20.0853
13.9457
15.5587
12.5
27.8914
25
31.1173
24.1044
17.3581
12.9644
15.5587
11.6204
13.4461
10.0426
40.1706
32.2735
36.0062
27.8914
27.8914
22.4083
26.8923
22.4083
13.9457
11.6204
12.5
10.0426
15.0013
12.0522
13.4461
9.68287
40.1706
33.4726
32.2735
27.8914
25
20.0853
25
18.672
21.6055
19.3657
12.9644
10.4158
10.8028
9.00154
11.2042
9.00154
34.7163
30.0026
33.4726
25.9289
24.1044
21.6055
24.1044
19.3657
12.0522
10.4158
20.8316
15.5587
22.4083
16.1367
20.0853
16.1367
16.7363
13.9457
11.6204
8.67907
12.5
10.0426
38.7315
34.7163
11.2042
8.67907
20.8316
18.0031
15.5587
12.0522
16.7363
12.9644
20.8316
15.5587
15.0013
12.5
10.4158
9.00154
33.4726
26.8923
10.0426
8.67907
10.8028
9.33599
18.0031
15.0013
14.4639
11.6204
25.9289
22.4083
23.2409
19.3657
22.4083
17.3581
16.7363
15.0013
48.2088
43.2111
27.8914
24.1044
23.2409
20.0853
12.9644
12.0522
9.68287
8.06837
28.9278
25
17.3581
15.5587
18.672
17.3581
10.4158
8.36815
31.1173
27.8914
22.4083
20.0853
20.0853
16.1367
12.9644
11.6204
30.0026
25
16.7363
15.0013
17.3581
15.5587
30.0026
25.9289
30.0026
27.8914
20.0853
17.3581
10.4158
9.00154
43.2111
38.7315
27.8914
23.2409
18.672
16.7363
18.672
15.0013
37.344
33.4726
27.8914
24.1044
18.672
18.0031
10.8028
10.0426
36.0062
31.1173
21.6055
19.3657
18.0031
16.7363
34.7163
31.1173
9.33599
8.67907
20.8316
18.672
37.344
36.0062
16.7363
15.0013
12.0522
11.2042
10.4158
9.00154
31.1173
26.8923
18.0031
16.7363
13.4461
12.5
25
22.4083
17.3581
15.5587
17.3581
15.5587
34.7163
31.1173
21.6055
19.3657
13.4461
12.9644
33.4726
27.8914
16.7363
15.5587
10.8028
10.0426
30.0026
26.8923
19.3657
18.0031
12.0522
10.4158
25
21.6055
18.672
17.3581
8.36815
8.06837
27.8914
25.9289
12.9644
12.0522
41.6631
40.1706
13.4461
12.5
11.6204
10.8028
31.1173
30.0026
26.8923
24.1044
18.672
17.3581
37.344
36.0062
20.0853
19.3657
11.2042
10.8028
33.4726
31.1173
25.9289
22.4083
16.1367
15.0013
26.8923
24.1044
13.9457
13.4461
12.0522
11.2042
26.8923
25.9289
10.8028
10.4158
17.3581
16.1367
25
23.2409
10.0426
9.68287
33.4726
32.2735
12.5
11.6204
9.33599
8.36815
28.9278
27.8914
20.0853
19.3657
40.1706
37.344
15.5587
14.4639
13.9457
12.5
27.8914
25.9289
9.68287
9.00154
14.4639
13.9457
32.2735
31.1173
12.5
11.6204
12.0522
11.6204
25.9289
25
13.4461
12.5
10.4158
9.68287
26.8923
24.1044
14.4639
13.9457
10.4158
10.0426
23.2409
21.6055
13.9457
12.9644
40.1706
36.0062
25.9289
23.2409
18.672
16.7363
34.7163
32.2735
17.3581
16.7363
9.00154
8.36815
26.8923
25
18.0031
16.7363
25.9289
23.2409
17.3581
15.5587
15.5587
14.4639
25
23.2409
18.0031
16.7363
25.9289
25
12.5
12.0522
32.2735
28.9278
24.1044
22.4083
9.68287
9.33599
27.8914
26.8923
10.0426
9.68287
30.0026
28.9278
20.0853
18.672
10.0426
9.68287
30.0026
26.8923
12.5
11.6204
31.1173
30.0026
11.2042
10.8028
26.8923
24.1044
24.1044
20.8316
16.1367
15.0013
31.1173
30.0026
13.4461
12.5
33.4726
32.2735
24.1044
21.6055
9.33599
8.67907
24.1044
22.4083
17.3581
16.7363
25
24.1044
11.6204
11.2042
27.8914
26.8923
12.9644
12.5
28.9278
27.8914
10.0426
9.33599
25.9289
25
9.68287
9.33599
26.8923
25.9289
11.2042
10.8028
28.9278
27.8914
12.0522
11.2042
25
23.2409
10.8028
10.4158
26.8923
25.9289
10.8028
10.0426
23.2409
22.4083
9.68287
9.00154
22.4083
21.6055
13.4461
12.9644
9.00154
8.67907
12.0522
11.6204
15.0013
14.4639
8.67907
8.36815
25.9289
22.4083
9.33599
8.67907
9.00154
8.67907
9.00154
8.67907
23.2409
22.4083
9.33599
9.00154
26.8923
25.9289
11.6204
10.8028
25
22.4083
10.8028
10.0426
23.2409
21.6055
9.68287
9.33599
9.33599
9.00154
16.1367
15.5587
18.0031
16.7363
53.7845
51.8578
20.8316
20.0853
20.8316
20.0853
25
24.1044
62.2346
60.0051
9.00154
8.67907
24.1044
23.2409
16.7363
15.5587
77.463
72.0123
23.2409
20.0853
64.547
60.0051
17.3581
16.1367
92.9635
86.4222
23.2409
21.6055
48.2088
46.4818
20.8316
20.0853
89.6332
86.4222
15.0013
14.4639
83.3262
80.3411
23.2409
21.6055
48.2088
46.4818
10.0426
9.68287
41.6631
40.1706
16.1367
15.5587
44.8166
41.6631
20.8316
19.3657
46.4818
44.8166
20.8316
20.0853
44.8166
43.2111
16.1367
15.5587
44.8166
43.2111
20.8316
19.3657
36.0062
32.2735
10.4158
10.0426
43.2111
40.1706
22.4083
21.6055
37.344
36.0062
23.2409
22.4083
37.344
34.7163
9.33599
8.67907
32.2735
31.1173
20.0853
19.3657
33.4726
32.2735
19.3657
18.672
36.0062
34.7163
21.6055
20.8316
30.0026
28.9278
9.68287
9.33599
38.7315
37.344
15.5587
15.0013
37.344
34.7163
20.0853
19.3657
30.0026
28.9278
20.8316
20.0853
24.1044
23.2409
15.5587
15.0013
37.344
34.7163
11.6204
11.2042
31.1173
30.0026
20.8316
20.0853
36.0062
34.7163
14.4639
13.4461
32.2735
31.1173
18.0031
17.3581
33.4726
32.2735
20.0853
19.3657
26.8923
25.9289
15.5587
15.0013
23.2409
22.4083
12.9644
12.5
26.8923
25.9289
13.4461
12.5
36.0062
33.4726
13.9457
13.4461
26.8923
25.9289
11.2042
10.8028
31.1173
30.0026
11.6204
11.2042
25.9289
25
18.672
18.0031
25.9289
25
19.3657
18.672
28.9278
27.8914
16.7363
16.1367
33.4726
32.2735
11.2042
10.8028
28.9278
27.8914
17.3581
16.7363
33.4726
32.2735
12.0522
11.6204
27.8914
26.8923
11.2042
10.8028
24.1044
23.2409
18.672
18.0031
23.2409
22.4083
10.4158
10.0426
16.1367
15.5587
62.2346
60.0051
23.2409
22.4083
55.7829
53.7845
24.1044
23.2409
66.9452
62.2346
20.8316
20.0853
69.4326
66.9452
20.8316
20.0853
50
48.2088
14.4639
13.9457
27.8914
26.8923
16.7363
16.1367
28.9278
26.8923
19.3657
18.672
25
24.1044
12.9644
12.5
22.4083
21.6055
9.00154
8.67907
22.4083
21.6055
13.9457
13.4461
20.0853
18.672
46.4818
44.8166
12.0522
11.2042
25
24.1044
16.7363
16.1367
23.2409
22.4083
11.6204
11.2042
24.1044
23.2409
57.8555
55.7829
16.1367
15.5587
41.6631
40.1706
16.1367
15.5587
36.0062
34.7163
18.0031
17.3581
27.8914
25.9289
13.4461
12.9644
32.2735
31.1173
18.0031
17.3581
23.2409
22.4083
37.344
36.0062
9.00154
8.67907
28.9278
27.8914
12.9644
12.0522
30.0026
28.9278
11.2042
10.8028
24.1044
23.2409
41.6631
40.1706
19.3657
18.672
34.7163
33.4726
9.00154
8.67907
25
24.1044
37.344
36.0062
19.3657
18.672
26.8923
25.9289
18.0031
17.3581
25
24.1044
46.4818
44.8166
23.2409
22.4083
33.4726
32.2735
14.4639
13.9457
24.1044
23.2409
9.00154
8.67907
15.0013
13.9457
41.6631
40.1706
12.0522
11.6204
25
24.1044
10.0426
9.68287
21.6055
20.8316
34.7163
33.4726
15.0013
14.4639
25.9289
25
16.1367
15.5587
22.4083
21.6055
34.7163
33.4726
12.9644
12.5
25
24.1044
40.1706
38.7315
18.672
18.0031
24.1044
23.2409
89.6332
86.4222
21.6055
20.8316
28.9278
27.8914
15.0013
13.9457
23.2409
22.4083
32.2735
31.1173
16.1367
15.5587
25.9289
25
43.2111
41.6631
12.9644
12.5
30.0026
28.9278
11.6204
11.2042
14.4639
13.9457
25.9289
25
14.4639
13.9457
22.4083
21.6055
28.9278
27.8914
8.67907
8.36815
18.672
18.0031
32.2735
31.1173
15.5587
15.0013
22.4083
21.6055
32.2735
31.1173
64.547
62.2346
18.0031
17.3581
30.0026
28.9278
80.3411
77.463
16.1367
15.5587
31.1173
30.0026
60.0051
57.8555
21.6055
20.8316
30.0026
28.9278
15.5587
15.0013
20.8316
20.0853
32.2735
31.1173
66.9452
64.547
16.7363
16.1367
27.8914
26.8923
34.7163
33.4726
16.7363
16.1367
19.3657
18.672
38.7315
37.344
18.0031
17.3581
19.3657
18.672
25.9289
25
41.6631
40.1706
14.4639
13.9457
28.9278
27.8914
28.9278
27.8914
16.7363
16.1367
16.7363
16.1367
24.1044
23.2409
38.7315
37.344
18.0031
17.3581
12.9644
12.5
26.8923
25.9289
17.3581
16.7363
16.7363
16.1367
28.9278
27.8914
32.2735
31.1173
10.0426
9.68287
19.3657
18.672
24.1044
23.2409
24.1044
23.2409
8.67907
8.36815
20.0853
19.3657
24.1044
23.2409
14.4639
13.9457
9.68287
9.33599
20.8316
20.0853
21.6055
20.8316
21.6055
20.8316
22.4083
21.6055
23.2409
22.4083
22.4083
21.6055
13.9457
13.4461
10.8028
10.4158
12.0522
11.6204
20.0853
19.3657
20.8316
20.0853
20.0853
19.3657
16.1367
15.5587
20.0853
19.3657
18.0031
17.3581
11.6204
11.2042
12.9644
12.5
19.3657
18.672
18.0031
17.3581
19.3657
18.672
13.9457
13.4461
18.672
18.0031
15.0013
14.4639
15.0013
14.4639
14.4639
13.9457
16.1367
15.5587
12.0522
11.2042
19.3657
18.672
20.0853
19.3657
20.0853
19.3657
16.1367
15.5587
12.5
12.0522
13.4461
12.9644
12.5
12.0522
16.1367
15.5587
19.3657
18.672
12.5
12.0522
16.1367
15.5587
12.9644
12.5
19.3657
18.672
18.0031
17.3581
17.3581
16.7363
12.5
12.0522
10.4158
10.0426
17.3581
16.7363
17.3581
16.7363
16.1367
15.5587
17.3581
16.7363
18.0031
17.3581
12.9644
12.5
9.33599
9.00154
12.9644
12.5
9.68287
9.33599
9.33599
9.00154
9.00154
8.67907
10.0426
9.68287
13.9457
13.4461
10.4158
10.0426
11.2042
10.8028
12.5
12.0522
9.33599
9.00154
11.6204
11.2042
10.4158
10.0426
10.0426
9.68287
12.5
12.0522
10.0426
9.68287
9.68287
9.33599
15.5587
15.0013
22.4083
21.6055
8.67907
8.36815
51.8578
50
53.7845
51.8578
60.0051
57.8555
60.0051
57.8555
64.547
62.2346
74.6879
72.0123
46.4818
44.8166
83.3262
80.3411
74.6879
72.0123
77.463
74.6879
64.547
62.2346
72.0123
69.4326
50
48.2088
38.7315
37.344
41.6631
40.1706
40.1706
38.7315
34.7163
33.4726
38.7315
37.344
37.344
36.0062
38.7315
37.344
36.0062
34.7163
25
24.1044
34.7163
33.4726
31.1173
30.0026
24.1044
23.2409
34.7163
33.4726
36.0062
34.7163
31.1173
30.0026
26.8923
25.9289
27.8914
26.8923
26.8923
25.9289
16.1367
15.5587
22.4083
21.6055
17.3581
16.7363
16.7363
16.1367
96.4176
92.9635
33.4726
32.2735
38.7315
37.344
30.0026
28.9278
25
24.1044
22.4083
21.6055
19.3657
18.672
20.0853
19.3657
10.4158
10.0426
10.8028
10.4158
10.4158
10.0426
9.68287
9.33599
38.7315
37.344
32.2735
31.1173
22.4083
21.6055
21.6055
20.8316
16.7363
16.1367
100
96.4176
25.9289
25
20.8316
20.0853
9.33599
9.00154
25.9289
25
19.3657
18.672
9.33599
9.00154
18.672
18.0031
22.4083
21.6055
53.7845
51.8578
27.8914
26.8923
11.6204
11.2042
46.4818
44.8166
28.9278
27.8914
11.6204
11.2042
