# vtk DataFile Version 3.0
Tree
ASCII
DATASET POLYDATA
POINTS 400 float
0 1000 500
227.631 -834.275 500
391.698 818.307 500
1730.86 1925.81 500
78.3396 963.661 500
-1979.7 -50.9833 500
-1437.66 -160.129 500
-1653.62 -831.17 500
-834.164 449.315 500
-1452.18 639.51 500
15.6679 992.732 500
401.622 1870.78 500
3.13359 998.546 500
-1175.81 1863.53 500
-1075.56 205.537 500
-825.288 -1541.33 500
675.033 303.202 500
1972.44 -104.636 500
-1024.18 -406.367 500
-1011.33 -559.343 500
1288.87 -141.418 500
1560.93 -604.428 500
-1178.66 -947.518 500
-1995.5 -1977.16 500
610.651 -232.473 500
737.78 -467.247 500
-1014.84 -1370.96 500
-1023.41 -1455.32 500
724.091 -372.056 500
1050.72 -695.613 500
-281.198 1275.89 500
-239.582 1520.3 500
288.134 1309.01 500
503.856 1344.41 500
618.366 406.223 500
706.216 385.362 500
1166.11 -52.4937 500
1330.44 60.1963 500
-979.137 -1511.18 500
-1025.89 -1901.7 500
468.778 1757.96 500
626.255 1869.62 500
-1120.38 1767.18 500
-1793.26 1969.41 500
-1592.81 1879.7 500
-1628.57 1846.26 500
-1116.76 1809.52 500
-1046.88 1882.54 500
1429.46 -535.5 500
1447.67 -1185.81 500
969.676 89.7846 500
1633.94 488.382 500
-469.163 655.054 500
-448.015 384.765 500
-990.12 -473.722 500
-866.741 -590.167 500
1546.29 1629.99 500
1939.01 1740.02 500
-1450.37 -1200.22 500
-1720.37 -1181.38 500
1384.15 -786.036 500
1307.08 -836.685 500
-1147.98 132.404 500
-1422.13 257.007 500
1500.33 -985.646 500
1901.52 -1384.31 500
-850.844 1460.57 500
-1451.07 1216.71 500
-1005.31 1605.8 500
-1084.13 1573.49 500
-1034.45 -283.986 500
-672.617 -390.485 500
1668.57 1630.58 500
1764.97 1522.9 500
328.539 1621.61 500
128.873 1974.11 500
1479.26 -1065.71 500
1110.02 -1972.08 500
-542.163 613.906 500
-862.826 954.137 500
966.362 1325.31 500
955.838 1729.94 500
-1052.33 -1651.27 500
-1298.35 -1821.08 500
529.935 -625.791 500
590.089 -1597.26 500
910.748 132.468 500
980.618 122.209 500
-427.052 426.281 500
-300.905 51.7656 500
-1195.95 609.51 500
-1231.14 652.908 500
-1288.25 1306.82 500
-1344.13 1320.05 500
915.643 1663.13 500
850.089 1765.24 500
596.656 -1505.94 500
636.584 -1854.69 500
-721.224 1393.69 500
-772.391 1310.82 500
681.347 409.799 500
845.419 444.965 500
-877.8 -1530.95 500
-472.449 -1610.04 500
1196.97 -1753.02 500
1175.51 -1783.14 500
805.303 452.136 500
991.237 515.64 500
851.429 1223.91 500
1569.3 847.624 500
-276.668 157.71 500
-177.238 129.368 500
-140.661 840.218 500
-90.4118 515.484 500
471.02 -1424.94 500
35.1955 -1981.09 500
-898.067 -1527 500
-862.843 -1692.99 500
-1366.69 1799.06 500
-1407.08 1701.51 500
1102.53 169.504 500
1174.63 192.168 500
897.402 1264.47 500
922.706 1310.46 500
-943.527 1547.71 500
-782.819 1968.91 500
485.784 1355.39 500
629.216 1434.71 500
-281.515 136.521 500
-227.829 -485.158 500
-882.603 -558.343 500
-699.292 -663.937 500
946.105 106.858 500
964.52 21.3552 500
-9.26073 914.284 500
7.34134 776.364 500
-483.763 646.824 500
-598.559 746.68 500
1459.13 -1309.34 500
1660.88 -1596.57 500
1303.68 1446.95 500
1493.09 1324.15 500
-1449.1 -1245.02 500
-1444 -1424.23 500
-757.59 -600.958 500
-624.162 -560.231 500
196.919 -1854.1 500
221.591 -1941.68 500
1218.7 -1636.33 500
1043.45 -1613.27 500
533.258 -824.736 500
534.089 -874.472 500
-1765.48 -164.37 500
-1803.35 -203.58 500
454.643 -1147.3 500
264.658 -1237.16 500
-1569.45 -645.94 500
-1551.18 -703.615 500
-1360.66 218.187 500
-1937.2 436.718 500
954.413 -528.741 500
999.084 -525.346 500
-1026.23 -381.891 500
-1076.02 -457.007 500
266.355 876.449 500
405.707 1082.74 500
-1451.14 -304.51 500
-1373.28 -396.222 500
1067.01 1097.41 500
1120.9 1065.79 500
1352.2 1483.56 500
1332.95 1701.51 500
831.897 -506.825 500
802.48 -732.531 500
457.918 -1202.83 500
751.446 -1336.1 500
366.708 -1168.97 500
329.799 -1156.55 500
-167.466 1164.95 500
-154.318 1278.71 500
1048.25 32.8733 500
1148.79 70.8889 500
439.206 1843.63 500
455.229 1960.66 500
-619.893 1369.54 500
-654.595 1390.74 500
-1087.36 575.478 500
-1105.37 604.528 500
1508.34 -576.857 500
1876.84 -814.513 500
-734.271 -626.15 500
-423.045 -911.243 500
1544.16 894.384 500
1945.87 831.636 500
-773.29 1889.26 500
-574.468 1991.88 500
-1449.15 -158.544 500
-1495.11 -152.204 500
-1600.77 -1156.75 500
-1662.36 -1020.57 500
1266.78 -1570.94 500
1238.97 -1619.83 500
1382.19 -1413.98 500
1154.36 -1329.41 500
437.032 735.89 500
477.879 774.768 500
722.176 269.055 500
801.205 271.324 500
-1170.16 -1759.01 500
-1149.42 -1850.37 500
1635.49 -1559.5 500
1937.45 -1985.69 500
296.215 1371.53 500
320.194 1375.57 500
1463.62 1405.08 500
1608.83 1403.68 500
509.566 604.023 500
306.762 372.846 500
-1084.02 1314.32 500
-1141.9 1036.83 500
1477.09 -945.724 500
1723.5 -929.686 500
-843.252 -297.278 500
-737.368 -263.966 500
275.572 -1771.08 500
316.086 -1868.15 500
-336.821 265.138 500
-575.352 -79.2265 500
-1266.65 604.967 500
-1293.2 556.794 500
1640.57 -1566.92 500
1551.86 -1788.09 500
-635.53 -1650.83 500
-477.152 -1972.18 500
1484.42 1343.28 500
1538.17 1176.99 500
-38.4753 573.69 500
64.5543 498.633 500
607.387 -1833.46 500
583.556 -1975.98 500
440.73 1730.69 500
520.973 1694.05 500
-1785.34 -1807.83 500
-1743.31 -1919.91 500
261.562 -828.131 500
94.9814 -1012.04 500
-182.697 -390.591 500
-88.1565 -559.58 500
-1080.37 -1201.58 500
-925.263 -1233.48 500
-484.415 1332.08 500
-659.109 1072.92 500
-658.335 1127.25 500
-829.933 1085.43 500
-446.01 -856.758 500
-226.645 -923.911 500
-443.896 517.79 500
-350.07 447.923 500
-1705.18 436.04 500
-1930.17 870.387 500
-1780.61 -196.181 500
-1841.13 -323.424 500
662.157 196.067 500
673.302 115.539 500
1459.16 969.723 500
1596.34 1068.05 500
532.594 -784.947 500
666.226 -844.889 500
-1341.69 -1099.14 500
-1331.34 -1188.09 500
-1054.16 -1868.69 500
-1140.81 -1987.08 500
-1259.14 1751.94 500
-1321.57 1627.22 500
517.535 -889.249 500
821.2 -1069.74 500
1327.57 272.242 500
1399.42 266.911 500
330.842 -1701.19 500
356.474 -1767.79 500
941.805 1701.31 500
1046.45 1854.02 500
978.515 498.044 500
1113.56 491.165 500
1612.05 446.725 500
1830.84 496.238 500
531.53 -721.284 500
613.22 -747.082 500
1373.22 -377.867 500
1360.75 -422.468 500
182.82 -1851.85 500
126.426 -1842.88 500
-911.267 1660.94 500
-952.466 1772.33 500
631.678 -1760.16 500
739.572 -1794.47 500
123.262 -917.679 500
-96.7775 -908.052 500
-362.485 1298.37 500
-394.872 1363.59 500
1604.06 -944.096 500
1619.13 -969.659 500
620.953 -146.765 500
183.138 -155.001 500
718.193 -1061.64 500
715.514 -1139.74 500
1393.21 -735.929 500
1144.01 -770.169 500
1581.65 1384.22 500
1763.35 1303.58 500
179.148 1182.5 500
124.131 1285.32 500
1829.92 -16.9339 500
1957.93 133.01 500
-397.913 170.146 500
-403.751 134.545 500
1077.78 1091.09 500
1059.49 796.302 500
-993.776 -1539.2 500
-1108.09 -1548.36 500
244.111 -1804.28 500
-169.193 -1747.62 500
-1579.24 310.388 500
-1764.56 243.487 500
629.7 385.619 500
586.081 370.768 500
1568.76 -117.581 500
1606.19 -271.204 500
-1517.59 -585.019 500
-1428.44 -682.766 500
-707.34 -1617.6 500
-674.457 -1635.41 500
467.221 -1095.69 500
587.362 -1174.88 500
-238.136 1473.57 500
-149.12 1775.45 500
787.506 -1089.16 500
961.754 -1191.15 500
546.078 -547.127 500
559.915 -583.805 500
834.524 -1145.68 500
848.349 -1269.78 500
-236.804 1378.94 500
-145.351 1395.77 500
-1766.41 645.648 500
-1745.76 742.887 500
-1616 -1392.62 500
-1947.35 -1420.22 500
1819.16 -1204.7 500
1897.99 -1217.85 500
-1888.4 732.007 500
-1989.51 749.175 500
1618.21 -213.991 500
1741.18 -292.386 500
-1060.65 1584.82 500
-1203.2 1533.2 500
-1036.72 550.245 500
-967.553 734.296 500
1579.6 1784.8 500
1537.27 1869.11 500
305.478 -1209.89 500
-50.2925 -1370.91 500
646.748 17.5276 500
667.521 -10.9659 500
497.41 -971.826 500
435.531 -964.376 500
-1206.56 1309.82 500
-1237.99 1291.5 500
-574.632 1262.13 500
-622.996 1259.63 500
-800.886 1843.6 500
-671.272 1850.55 500
1371.56 254.645 500
1475.7 189.588 500
1778.8 1666.15 500
1808.92 1664.78 500
-1457.14 1831.31 500
-1953.28 1545.38 500
1370.73 -386.787 500
1156.97 -503.197 500
1439.91 -881.849 500
1488.11 -859.403 500
451.052 527.71 500
436.423 508.632 500
-1427.72 653.328 500
-1515.43 743.143 500
1412.96 -1372.13 500
1351.94 -1381.16 500
-34.7818 -1334.08 500
-189.401 -1359.35 500
-294.781 -87.6115 500
-364.088 -160.254 500
-1385.16 -1139.57 500
-1493.32 -1089.79 500
575.591 980.547 500
557.833 1038.94 500
240.673 -88.9858 500
108.069 5.91905 500
427.965 752.374 500
244.029 578.079 500
LINES 399 1197
2 244 1
2 164 2
2 358 3
2 10 4
2 152 5
2 62 6
2 156 7
2 78 8
2 384 9
2 12 10
2 182 11
2 0 12
2 46 13
2 8 14
2 102 15
2 324 16
2 312 17
2 162 18
2 54 19
2 36 20
2 188 21
2 18 22
2 242 23
2 302 24
2 28 25
2 248 26
2 26 27
2 24 28
2 160 29
2 178 30
2 334 31
2 310 32
2 126 33
2 216 34
2 100 35
2 180 36
2 36 37
2 26 38
2 270 39
2 240 40
2 40 41
2 68 42
2 44 43
2 376 44
2 44 45
2 42 46
2 46 47
2 288 48
2 76 49
2 132 50
2 284 51
2 112 52
2 88 53
2 18 54
2 130 55
2 170 56
2 374 57
2 392 58
2 198 59
2 306 60
2 60 61
2 14 62
2 158 63
2 220 64
2 348 65
2 98 66
2 92 67
2 124 68
2 354 69
2 14 70
2 222 71
2 56 72
2 72 73
2 212 74
2 74 75
2 64 76
2 104 77
2 136 78
2 78 79
2 122 80
2 280 81
2 318 82
2 208 83
2 338 84
2 96 85
2 206 86
2 86 87
2 256 88
2 128 89
2 186 90
2 90 91
2 366 92
2 92 93
2 80 94
2 94 95
2 114 96
2 238 97
2 184 98
2 98 99
2 34 100
2 106 101
2 116 102
2 232 103
2 148 104
2 104 105
2 100 106
2 282 107
2 394 108
2 192 109
2 226 110
2 110 111
2 134 112
2 236 113
2 174 114
2 290 115
2 38 116
2 116 117
2 272 118
2 118 119
2 50 120
2 120 121
2 108 122
2 122 123
2 66 124
2 194 125
2 32 126
2 126 127
2 110 128
2 246 129
2 54 130
2 190 131
2 86 132
2 132 133
2 4 134
2 134 135
2 52 136
2 136 137
2 76 138
2 210 139
2 80 140
2 234 141
2 58 142
2 142 143
2 130 144
2 144 145
2 320 146
2 146 147
2 200 148
2 148 149
2 266 150
2 150 151
2 196 152
2 260 153
2 332 154
2 360 155
2 328 156
2 156 157
2 62 158
2 258 159
2 172 160
2 160 161
2 70 162
2 162 163
2 4 164
2 164 165
2 6 166
2 166 167
2 108 168
2 168 169
2 140 170
2 170 171
2 28 172
2 172 173
2 154 174
2 174 175
2 154 176
2 176 177
2 12 178
2 178 179
2 50 180
2 180 181
2 40 182
2 182 183
2 250 184
2 184 185
2 356 186
2 186 187
2 48 188
2 188 189
2 144 190
2 254 191
2 264 192
2 192 193
2 370 194
2 194 195
2 6 196
2 196 197
2 58 198
2 198 199
2 202 200
2 200 201
2 386 202
2 202 203
2 398 204
2 204 205
2 16 206
2 206 207
2 82 208
2 208 209
2 138 210
2 230 211
2 32 212
2 212 213
2 140 214
2 308 215
2 204 216
2 382 217
2 66 218
2 218 219
2 380 220
2 300 221
2 70 222
2 222 223
2 278 224
2 224 225
2 88 226
2 314 227
2 90 228
2 228 229
2 210 230
2 230 231
2 330 232
2 232 233
2 214 234
2 234 235
2 112 236
2 236 237
2 294 238
2 238 239
2 74 240
2 240 241
2 346 242
2 242 243
2 84 244
2 296 245
2 390 246
2 246 247
2 22 248
2 248 249
2 298 250
2 252 251
2 368 252
2 252 253
2 190 254
2 254 255
2 52 256
2 256 257
2 322 258
2 350 259
2 152 260
2 260 261
2 16 262
2 262 263
2 316 264
2 264 265
2 286 266
2 266 267
2 22 268
2 268 269
2 82 270
2 270 271
2 42 272
2 272 273
2 150 274
2 336 275
2 120 276
2 372 277
2 114 278
2 278 279
2 94 280
2 280 281
2 106 282
2 282 283
2 276 284
2 284 285
2 84 286
2 286 287
2 20 288
2 378 289
2 146 290
2 290 291
2 124 292
2 292 293
2 96 294
2 294 295
2 244 296
2 296 297
2 30 298
2 298 299
2 220 300
2 300 301
2 362 302
2 396 303
2 274 304
2 304 305
2 48 306
2 306 307
2 214 308
2 308 309
2 10 310
2 310 311
2 326 312
2 312 313
2 226 314
2 314 315
2 168 316
2 316 317
2 38 318
2 318 319
2 224 320
2 320 321
2 158 322
2 322 323
2 34 324
2 324 325
2 20 326
2 352 327
2 166 328
2 328 329
2 102 330
2 330 331
2 364 332
2 332 333
2 342 334
2 334 335
2 304 336
2 340 337
2 24 338
2 338 339
2 336 340
2 340 341
2 30 342
2 342 343
2 258 344
2 344 345
2 142 346
2 346 347
2 64 348
2 348 349
2 344 350
2 350 351
2 326 352
2 352 353
2 68 354
2 354 355
2 8 356
2 356 357
2 56 358
2 358 359
2 176 360
2 388 361
2 262 362
2 362 363
2 274 364
2 364 365
2 218 366
2 366 367
2 250 368
2 368 369
2 292 370
2 370 371
2 276 372
2 372 373
2 72 374
2 374 375
2 118 376
2 376 377
2 288 378
2 378 379
2 60 380
2 380 381
2 216 382
2 382 383
2 228 384
2 384 385
2 138 386
2 386 387
2 360 388
2 388 389
2 128 390
2 390 391
2 268 392
2 392 393
2 2 394
2 394 395
2 302 396
2 396 397
2 2 398
2 398 399
CELL_DATA 399
SCALARS radius float
LOOKUP_TABLE default
3.22521
22.1191
5.74059
26.3188
5.72627
9.82548
6.22309
18.5481
3.97768
26.6427
4.06117
27.693
3.89356
18.1213
3.96619
20.3157
5.20815
15.9645
3.40392
15.2222
3.34787
15.141
7.45849
15.8687
3.50034
12.5933
4.00185
7.19122
5.44238
13.1975
2.94915
8.6675
2.80372
20.4845
2.42215
15.3055
3.87491
12.4572
5.04804
6.86007
4.94318
9.80185
6.30999
6.92961
4.33595
5.05735
4.12766
14.3472
4.24901
15.9776
4.18011
19.3256
2.61547
8.42365
2.89215
8.9476
6.18313
10.7939
5.08529
13.8311
3.67207
11.8725
3.17157
13.3561
6.28464
12.3591
5.70136
10.1655
2.84048
16.2325
4.70292
7.50166
4.97225
8.01533
5.09424
12.6169
7.7829
18.6288
4.37345
11.4166
3.43859
9.55566
6.25537
15.3327
4.3688
16.0452
2.87329
8.81371
3.47012
6.9998
3.39068
6.39929
4.24937
6.54585
4.44365
8.934
4.88461
12.4315
3.22008
5.80502
2.8356
9.35889
6.29292
8.38234
4.89844
5.66091
3.17787
12.7291
3.87696
8.0234
3.58866
19.428
3.61285
12.4212
6.76861
9.87395
5.2284
9.00208
4.28038
7.71248
3.13648
11.4686
2.73382
11.3498
4.33884
4.99224
4.67812
7.77657
5.2043
8.23414
3.4666
16.0144
3.04737
19.4538
3.08149
18.6628
3.2855
12.4542
4.11664
10.6488
3.0848
9.90936
4.82312
8.11345
4.35928
8.41542
5.46255
9.43103
6.29844
14.65
3.00373
7.29016
3.46929
13.6669
3.55382
6.96615
4.59545
8.98337
4.94841
5.99239
3.77925
16.0115
3.30336
22.1506
3.59049
8.11146
4.0607
8.2132
3.05781
9.30789
4.48251
6.90341
4.84621
12.7189
5.20661
7.91165
3.20393
13.2492
3.00495
15.3546
3.25905
5.86797
5.13082
12.4666
2.53526
7.13606
2.73335
5.90229
5.51888
7.67019
4.77397
6.88619
6.44944
6.36591
5.60722
7.45816
3.015
6.5773
5.34887
9.75091
4.4527
10.3629
5.70571
20.5607
2.51994
16.0759
2.87603
7.50987
5.63335
9.11356
7.60489
8.076
2.27548
7.37499
3.6192
20.548
4.06318
7.52288
4.99378
13.6818
5.0951
5.56488
4.08796
10.3888
5.05011
8.73626
5.00131
6.72388
3.62448
8.82451
6.27733
8.83127
7.60335
5.57409
5.23948
4.86735
4.08476
7.64228
6.90902
7.26057
3.91288
8.61957
6.08668
7.12995
4.88101
7.14244
6.06785
12.7738
4.433
12.8292
3.53494
5.32625
4.7464
7.42649
6.70019
8.95199
3.19886
8.47081
6.02208
5.84493
5.40526
16.1729
2.91284
7.56326
4.73411
14.7418
3.90465
11.1515
3.82662
7.65736
6.84241
9.3308
4.35978
14.6077
3.7261
7.53555
3.14126
10.6364
4.34635
5.77634
5.3377
5.41306
5.02013
6.75822
6.17653
14.8005
3.37395
14.5152
2.74023
7.5652
4.97152
7.43856
3.84024
8.57123
5.68105
6.90281
5.96858
12.8732
2.79242
5.63115
3.59066
16.1233
4.22382
7.70637
4.08574
14.0061
4.66865
6.10857
5.65179
8.80006
3.11874
6.70193
5.42604
5.31642
2.93049
8.06941
4.52746
9.90054
4.60926
9.97469
7.34621
8.84961
4.40102
20.3279
2.47636
7.76946
3.83214
7.75698
5.04878
9.11516
4.09324
13.7933
4.1505
5.10249
4.75035
7.30278
5.58124
15.3603
2.69052
6.96396
5.47228
5.48841
3.1906
7.86572
4.63267
9.51284
6.0409
7.20556
5.01184
7.28877
5.52694
5.51758
4.81597
4.77324
4.41118
7.5506
4.06314
6.65079
4.7178
7.73248
4.79515
16.1413
2.41487
13.8547
3.27582
6.70335
3.39577
5.58332
2.84187
7.08042
4.59439
4.92184
4.45188
6.68856
3.97562
8.6672
6.82796
4.71783
4.38704
13.7442
3.27775
4.31255
2.3588
6.35271
5.7834
10.5516
3.95621
7.47369
6.74742
7.53907
4.00279
10.9993
4.18202
12.7668
2.64045
5.80364
4.93412
20.5994
3.66348
