# vtk DataFile Version 3.0
Tree
ASCII
DATASET POLYDATA
POINTS 1732 float
40693.5 56318.5 68.45
40693.5 56318.5 2568.45
34443.5 55443.5 6443.45
33438.5 52817.5 12801.5
33820.4 53815.4 10385.4
37151.5 52322.5 13543.5
33761.1 53047.4 12423
34181.5 52569.5 14038.5
34021.8 52751.1 13424.6
29726.5 49847.5 17256.4
31358.7 50950.9 15800.3
25270.5 48857.5 14038.5
36460 52275.1 13349.1
38636.5 49104.5 18245.4
32370.7 51635 14897.6
33191.5 49847.5 19730.4
38463.7 49694.5 16497.1
42843.5 45392.5 17998.4
29812.7 49921.8 16954.7
26261.5 47619.5 18741.4
33561.1 52904.9 12657.7
29230.5 51827.5 11563.5
32523 50334.5 18212.2
29478.5 48114.5 21463.4
26671.8 49076.2 14722.1
23538.4 46382.5 15523.5
38679.9 49172.4 18118.7
39378.5 48114.5 21711.4
33184.2 50013.6 19389.9
34428.5 50094.5 20226.4
40873.2 47619.8 18162.5
41358.5 47372.5 18988.4
33997.3 49921.1 20109.2
35170.5 49104.5 21958.4
27252.4 48172 18658.9
26756.5 47619.5 19978.4
30417.2 48716.7 21029.5
30221.5 48362.5 22700.4
39051.3 48538.7 21261.1
38388.5 49104.5 25423.5
30132.3 48584.1 22397.7
28983.5 48857.5 25670.5
42342.8 45865.1 18484.7
45318.5 41927.5 20968.4
44004.2 43204.9 19553.9
45070.5 38957.5 18493.4
38049.8 48965.2 23910.9
33933.5 49847.5 27403.5
29420.1 48753.6 24426.8
24033.4 47124.5 25670.5
44717.5 42371.1 20905.3
45813.5 40442.5 25670.5
38259.8 49051.6 24848.7
39130.5 48609.5 31611.5
44939.9 39993.6 19245.7
46803.5 35739.5 21215.4
35010.2 49609.3 27014.9
33685.5 49847.5 31363.5
46151.2 36778 20214.2
46803.5 32522.5 18988.4
25502.9 47382.9 25928.4
21063.4 44897.5 30621.5
23815.9 46438.5 27711.8
23943.5 48693.4 32693.5
24591.8 47222.7 25768.5
20073.4 43164.5 22453.4
38505.5 48820.4 31179.8
37893.5 48857.5 37798.5
41174.1 47466.5 18674.5
43091.5 46134.5 22453.4
21154.8 43394 23209.9
19083.4 36977.5 21463.4
42653.2 45572.1 18183.2
42843.5 40689.5 14286.5
38893 48689.6 31447.4
44328.5 45392.5 34333.5
19850.6 37878.4 22073.5
20568.4 31037.5 22453.4
24531.1 47186.7 15693.5
22795.4 45392.5 18741.4
42996.2 40858.1 14584.9
43338.5 37719.5 12306.5
22109.4 45483.1 29515.8
19330.4 41184.5 28393.5
20017.9 38534.1 22591.2
19330.4 35492.5 22948.4
19646.7 36891.6 22784.1
19826.4 35492.5 25670.5
24423 48405.9 32026.5
25765.5 49599.5 34581.5
37443.3 49115.8 34561.5
32448.5 50837.5 38788.5
35000.8 49802.2 37721.3
34428.5 49599.5 41015.5
34444.4 49792.8 40126.1
33438.5 50589.5 41015.5
33161.2 50032.3 38521.4
28241.5 48857.5 40768.5
29330.6 48540.4 40049.4
26508.5 46382.5 40768.5
34434.6 49673 40677.5
36903.5 48362.5 43738.5
28346.7 47794.3 40552.2
27745.5 47372.5 42253.5
27974 47532.8 41607
27498.5 44649.5 42995.5
27543.4 44925.7 42662.3
27251.5 43164.5 42995.5
27362.4 43833.8 42868.9
27498.5 41679.5 45966.5
27446.8 42498.1 44789.4
27003.5 36482.5 44728.5
27456.5 37441 44950.9
28241.5 34749.5 45470.5
27574.3 39741.2 45733.1
27745.5 38462.5 46955.5
27841.2 36260.8 45378.8
28241.5 35739.5 46708.5
28309.6 34896.9 45508.1
29728.5 32024.5 45968.5
27893.5 38806 46770.3
29230.5 37719.5 48688.5
19914.2 38127.5 22270.3
20073.4 38709.5 16265.5
45621.5 40374.1 24973
46555.5 36234.5 29878.5
46199.4 37282.9 29420.3
45813.5 35739.5 36066.5
45848.4 36606.7 35034.2
45318.5 38957.5 41510.5
27293.7 43418.8 42947.4
23538.4 40689.5 39530.5
27207 46919 40686.3
23538.4 45392.5 37303.5
24488 45343.1 38184.8
23785.4 43907.5 37551.5
24108.6 44567.9 37842.8
24033.4 42669.5 39283.5
45149.8 38010.9 40455
43091.5 36729.5 46461.5
43873.7 37216.4 44179
41110.5 32769.5 45470.5
43226.5 37107.8 45870.5
42100.5 38214.5 47946.5
20825 32191.5 22350.8
23785.4 26087.5 22453.4
29189.3 33116 45793.6
32200.5 28067.5 41015.5
38339.6 49084.4 25205.1
42348.5 47124.5 27898.5
20000.2 38441.8 19027.7
20568.4 33759.5 15771.5
19951.1 35696.9 25549.6
21063.4 34254.5 30373.5
45254.4 38597.8 41109.4
44328.5 43659.5 42748.5
45826.8 36069 35674.2
41853.5 30542.5 40521.5
20659.2 34817.3 29036.5
20321.4 35492.5 30126.5
20971.2 34410.5 30323.9
21311.4 34007.5 32106.5
23811.6 43967.1 37630.6
22795.4 41927.5 37055.5
43622.1 32160.5 38393.1
41606.5 28314.5 37798.5
42312 29383.4 37556.2
41606.5 26334.5 34581.5
42341.2 34519 44057.3
41606.5 33017.5 43243.5
41874.6 28720.7 37706.4
39873.5 28809.5 40025.5
20852.6 34565 29834.7
23291.4 29552.5 30868.5
41602.8 26491.2 34612.2
41110.5 24602.4 32600.5
41129.4 24721.6 32759.3
40615.5 22869.4 30868.5
23074.9 27483 22983.2
23785.4 25839.5 24433.4
23804.3 26383.4 22411.8
26508.5 23117.4 20226.4
23848.7 26172.2 24272.3
26013.5 24107.4 26908.5
25533 24768.8 26647.3
26756.5 24849.4 30126.5
30628.4 28895 41200.1
31706.5 27077.5 39283.5
26876.5 24689 29602.9
29973.5 23859.4 33096.5
21457 34279.8 31747.6
23785.4 34749.5 37303.5
25480.9 24358.5 21056.9
23785.4 24602.4 13543.5
30376.1 28688.9 40932.5
27003.5 28314.5 36313.5
42528.4 37794 47157.6
41693.4 43943.4 47443.4
23368.8 45891.7 17013.7
20568.4 42422.5 17503.4
29171.8 48900.1 25595.2
28488.5 49599.5 30373.5
33662.1 49852.5 30639.9
31706.5 50342.5 33096.5
20802.4 34079.9 16744
22053.4 29552.5 15523.5
41309.3 25394 33463.4
43585.5 24354.4 27898.5
27175.7 36846.7 44813
26508.5 33759.5 41758.5
20844.8 42527.3 17400.6
19826.4 40937.5 17503.4
20213.4 41541.6 17464.3
19578.4 41184.5 18741.4
41975.8 42485.9 46951.4
42100.5 45392.5 44480.5
41560.1 43519.6 47302.3
39873.5 45392.5 47946.5
27742.1 29243.4 37930
26756.5 29799.5 37055.5
31601.3 27188.8 39527.2
32200.5 26087.5 38540.5
29715.5 24266.6 32881.6
31706.5 24602.4 35323.5
45011 41977.7 22636.1
45070.5 43412.5 25423.5
43392 37951.8 12999.9
45813.5 31037.5 10573.5
43138.1 45659 33485
46308.5 40937.5 33838.5
20449.8 35235.9 29712.3
21063.4 39452.5 33096.5
42926.6 24202.1 28293.2
43833.5 22622.4 22948.4
43311.4 22563.8 23906.4
41853.5 17919.4 18493.4
44695.5 32626.9 12212.9
44823.5 30047.5 12801.5
20211.1 38217.3 31385
19826.4 39204.5 31611.5
41866.8 45093.8 44584
41606.5 46134.5 43491.5
42843.9 35530.1 44263.2
42100.5 34997.5 45223.5
29875.4 24014.1 33014.8
34675.5 20394.4 29630.5
32403.7 21847 30254.3
33191.5 19652.4 23691.4
26895.3 47778.3 19863.1
26508.5 47372.5 22453.4
44342.9 43864.8 33619.3
46061.5 41927.5 29878.5
43876.2 45493.8 34011.1
44823.5 44154.5 37798.5
45836.7 36316.4 35379.8
44823.5 30542.5 34085.5
45247.4 32251.4 33880.2
45318.5 28314.5 29383.5
25213.2 23886.9 18484.1
29973.5 18662.4 16760.4
43241.6 39056.2 13602.2
45070.5 34502.5 16018.5
45493.4 42623.8 30784.6
45318.5 43164.5 29136.5
33523.3 20776 27263
34675.5 20394.4 26413.5
40506.1 47538 32221.7
41110.5 47619.5 36066.5
23116.5 42156.3 37187.5
22548.4 38462.5 36560.5
44848.7 30741.8 33888.8
43943.4 27693.5 33193.4
45269.1 43200.6 29838.3
44328.5 45392.5 28145.5
22994.5 42069.3 37137.3
21558.4 42917.5 33838.5
21679.2 32544.5 29773.5
22053.4 29799.5 27403.5
23100.1 45567.2 18448.5
23538.4 45392.5 20968.4
30918.2 50224.9 34120.5
29726.5 50094.5 36313.5
26877.9 29758.5 37155.1
24033.4 31532.5 34581.5
44945.2 39299 18539.7
44576.5 38214.5 16513.4
44236.1 44984.9 35450.3
42843.5 46382.5 38045.5
44685.9 44559.6 28788.8
43091.5 46382.5 29630.5
44134 45438.1 29434.5
44081.5 46134.5 30373.5
24758.2 25414.4 25554.8
24528.4 26829.5 29136.5
20484.3 43251.7 22740.9
20568.4 43164.5 20226.4
21581 31171.7 15569.6
23291.4 28809.5 12306.5
29164.5 28944 39551.3
29230.5 26829.5 37055.5
21764.4 44818.4 24982.1
19578.4 43412.5 25175.5
24369.4 31175.9 34644.5
22795.4 31779.5 32600.5
30034.1 48716.3 23635.5
31211.5 49104.5 26166.5
37472.2 48940.1 37455.7
36903.5 48857.5 40273.5
34156.9 54694.6 8256.77
32193.5 53193.4 8693.45
45400.2 38771.7 19613.7
46555.5 38462.5 22700.4
21884.8 30006.1 15785.9
23291.4 25592.5 18493.4
26836 47823.9 18606.7
26756.5 47619.5 18493.4
26366.7 47445.2 21685.4
24528.4 46877.5 23443.4
30108.4 49056.9 39460.3
27498.5 49352.5 38788.5
26530 34015.5 41729.4
25518.5 33017.5 39036.5
34664.8 49693 28857.7
37398.5 49352.5 32106.5
45294.1 38820.8 41358.1
43833.5 40937.5 44480.5
34067.7 49729.4 27371.4
32200.5 49599.5 28145.5
42672.2 25276 30528
44328.5 26334.5 28888.5
36857 51045.2 15337
36160.5 50094.5 17750.4
20449.9 40380.9 22826.3
18836.4 38462.5 25670.5
21999 29624.1 23018.2
22300.4 28314.5 25175.5
19680.6 41142.3 18569.8
19083.4 40194.5 19978.4
42612.6 35065 44168.5
43338.5 33759.5 42006.5
42413.8 25483.9 32036.3
42843.5 25592.5 31858.5
34690.6 49425 21588.4
34675.5 49352.5 23938.4
20845 33844.6 16033.4
21311.4 34749.5 12801.5
25523.3 30523.9 35799.4
25023.5 29057.5 33591.5
45862.7 42032.6 29987.7
46061.5 40937.5 28393.5
25012.3 23532.9 16553.2
23785.4 24602.4 13543.5
22552 45671 25527
20321.4 44897.5 26908.5
41622.9 33132.9 43361
40615.5 31284.5 42500.5
43269 46300.7 29681.6
42348.5 47619.5 30373.5
23236 33640.4 34728.3
24528.4 32522.5 36066.5
44631.6 35179.6 15161.4
45070.5 33017.5 15028.5
27270.9 43281.5 42973.4
25765.5 42669.5 42995.5
20462.8 43502.8 28185
19578.4 42917.5 26908.5
40956.8 31714.3 42629
41110.5 30789.5 41758.5
21272.4 34329.5 31206.6
21806.4 34749.5 34085.5
26392.6 47601.5 18696.5
24776.4 46629.5 18988.4
23537.3 47033.6 29977.8
22300.4 46877.5 32106.5
26802.1 24788.5 29927.5
25765.5 26582.5 30868.5
32439.5 49986.9 31715.7
30221.5 50094.5 31611.5
26344.1 35683.4 42674.7
25765.5 36977.5 42253.5
20185.6 35866.2 16793.2
20073.4 35244.5 15771.5
26679.8 41550.5 43316.9
26261.5 38709.5 43243.5
45970 41975.8 29928.8
46555.5 39947.5 30373.5
29875.4 24014.1 33014.8
32200.5 23117.4 33591.5
41792.3 46971.3 33185.6
42843.5 47124.5 34581.5
26402.2 32515.4 40013.6
29973.5 29552.5 41758.5
19702.2 37880.9 20711.7
19083.4 36977.5 19483.4
26518.4 33877.2 41745.1
27745.5 32769.5 42995.5
46397.4 40321.8 30461.3
46555.5 38709.5 31858.5
33563.6 52216.4 14150.9
33933.5 51084.5 15771.5
19318.5 37320.8 19950.2
19578.4 34997.5 19978.4
31134.2 24650.3 34837.4
31458.5 25592.5 36560.5
32904.1 49935.8 31306.9
33191.5 49847.5 33838.5
31958.9 52393.8 12555.6
30468.5 51332.5 14038.5
21527.5 44884.2 30161.5
20568.4 42669.5 31363.5
30571.8 23164.9 31830.4
29973.5 22127.4 29878.5
25534.9 49155.6 33413.4
28241.5 50094.5 34085.5
42533.2 27961.3 35735.6
43193.4 27443.5 34693.4
38051.3 48976.2 33519.2
39130.5 48857.5 35570.5
28195.3 49961.2 14598.5
[...]
CELL_DATA 1731
SCALARS radius float
LOOKUP_TABLE default
2.122e-314
100
100
100
80.3411
80.3411
74.6879
74.6879
72.0123
72.0123
60.0051
60.0051
77.463
77.463
64.547
64.547
60.0051
60.0051
55.7829
55.7829
72.0123
72.0123
60.0051
60.0051
51.8578
51.8578
57.8555
57.8555
55.7829
55.7829
51.8578
51.8578
53.7845
53.7845
50
50
53.7845
53.7845
51.8578
51.8578
51.8578
51.8578
48.2088
48.2088
44.8166
44.8166
46.4818
46.4818
44.8166
44.8166
40.1706
40.1706
41.6631
41.6631
41.6631
41.6631
41.6631
41.6631
36.0062
36.0062
40.1706
40.1706
34.7163
34.7163
38.7315
38.7315
33.4726
33.4726
50
50
28.9278
28.9278
44.8166
44.8166
32.2735
32.2735
25
25
43.2111
43.2111
36.0062
36.0062
32.2735
32.2735
26.8923
26.8923
25.9289
25.9289
30.0026
30.0026
27.8914
27.8914
25.9289
25.9289
24.1044
24.1044
24.1044
24.1044
20.0853
20.0853
23.2409
23.2409
19.3657
19.3657
18.0031
18.0031
16.7363
16.7363
16.1367
16.1367
14.4639
14.4639
12.9644
12.9644
13.4461
13.4461
12.0522
12.0522
11.6204
11.6204
12.9644
12.9644
25.9289
25.9289
34.7163
34.7163
30.0026
30.0026
27.8914
27.8914
15.5587
15.5587
18.672
18.672
16.7363
16.7363
16.1367
16.1367
24.1044
24.1044
21.6055
21.6055
20.0853
20.0853
22.4083
22.4083
10.4158
10.4158
40.1706
40.1706
22.4083
22.4083
23.2409
23.2409
23.2409
23.2409
25.9289
25.9289
22.4083
22.4083
20.8316
20.8316
15.0013
15.0013
22.4083
22.4083
20.8316
20.8316
19.3657
19.3657
20.0853
20.0853
21.6055
21.6055
18.672
18.672
16.7363
16.7363
18.0031
18.0031
17.3581
17.3581
17.3581
17.3581
16.1367
16.1367
9.68287
9.68287
15.0013
15.0013
18.672
18.672
15.5587
15.5587
9.33599
9.33599
19.3657
19.3657
40.1706
40.1706
43.2111
43.2111
37.344
37.344
20.0853
20.0853
18.0031
18.0031
12.5
12.5
36.0062
36.0062
34.7163
34.7163
18.0031
18.0031
17.3581
17.3581
8.36815
8.36815
9.33599
9.33599
12.9644
12.9644
38.7315
38.7315
32.2735
32.2735
24.1044
24.1044
21.6055
21.6055
14.4639
14.4639
12.5
12.5
30.0026
30.0026
20.8316
20.8316
16.7363
16.7363
20.8316
20.8316
12.5
12.5
10.4158
10.4158
48.2088
48.2088
23.2409
23.2409
23.2409
23.2409
26.8923
26.8923
22.4083
22.4083
15.0013
15.0013
33.4726
33.4726
21.6055
21.6055
9.33599
9.33599
28.9278
28.9278
14.4639
14.4639
21.6055
21.6055
20.8316
20.8316
13.9457
13.9457
18.672
18.672
38.7315
38.7315
32.2735
32.2735
8.06837
8.06837
38.7315
38.7315
22.4083
22.4083
20.0853
20.0853
19.3657
19.3657
16.7363
16.7363
27.8914
27.8914
18.672
18.672
8.67907
8.67907
32.2735
32.2735
7.50064
7.50064
50
50
26.8923
26.8923
89.6332
89.6332
38.7315
38.7315
16.7363
16.7363
48.2088
48.2088
43.2111
43.2111
20.8316
20.8316
10.0426
10.0426
38.7315
38.7315
22.4083
22.4083
40.1706
40.1706
16.1367
16.1367
66.9452
66.9452
27.8914
27.8914
19.3657
19.3657
32.2735
32.2735
20.0853
20.0853
17.3581
17.3581
48.2088
48.2088
19.3657
19.3657
7.77933
7.77933
20.8316
20.8316
14.4639
14.4639
34.7163
34.7163
17.3581
17.3581
18.672
18.672
18.0031
18.0031
32.2735
32.2735
15.0013
15.0013
31.1173
31.1173
16.1367
16.1367
19.3657
19.3657
46.4818
46.4818
31.1173
31.1173
14.4639
14.4639
34.7163
34.7163
10.8028
10.8028
20.8316
20.8316
13.9457
13.9457
20.0853
20.0853
12.0522
12.0522
26.8923
26.8923
9.33599
9.33599
24.1044
24.1044
9.68287
9.68287
18.672
18.672
69.4326
69.4326
23.2409
23.2409
11.2042
11.2042
36.0062
36.0062
64.547
64.547
31.1173
31.1173
12.0522
12.0522
27.8914
27.8914
19.3657
19.3657
32.2735
32.2735
53.7845
53.7845
24.1044
24.1044
51.8578
51.8578
26.8923
26.8923
53.7845
53.7845
30.0026
30.0026
51.8578
51.8578
25.9289
25.9289
50
50
28.9278
28.9278
53.7845
53.7845
22.4083
22.4083
51.8578
51.8578
21.6055
21.6055
40.1706
40.1706
25.9289
25.9289
46.4818
46.4818
20.0853
20.0853
37.344
37.344
26.8923
26.8923
43.2111
43.2111
25.9289
25.9289
37.344
37.344
19.3657
19.3657
37.344
37.344
18.0031
18.0031
36.0062
36.0062
21.6055
21.6055
37.344
37.344
17.3581
17.3581
26.8923
26.8923
13.9457
13.9457
36.0062
36.0062
16.1367
16.1367
26.8923
26.8923
13.4461
13.4461
33.4726
33.4726
20.8316
20.8316
38.7315
38.7315
22.4083
22.4083
32.2735
32.2735
15.5587
15.5587
33.4726
33.4726
13.9457
13.9457
33.4726
33.4726
11.6204
11.6204
25.9289
25.9289
60.0051
60.0051
33.4726
33.4726
50
50
25
25
37.344
37.344
18.0031
18.0031
30.0026
30.0026
11.2042
11.2042
37.344
37.344
86.4222
86.4222
26.8923
26.8923
83.3262
83.3262
22.4083
22.4083
37.344
37.344
11.6204
11.6204
40.1706
40.1706
18.672
18.672
36.0062
36.0062
12.0522
12.0522
20.0853
20.0853
19.3657
19.3657
25.9289
25.9289
62.2346
62.2346
25.9289
25.9289
46.4818
46.4818
24.1044
24.1044
37.344
37.344
14.4639
14.4639
25.9289
25.9289
12.5
12.5
28.9278
28.9278
34.7163
34.7163
8.36815
8.36815
24.1044
24.1044
51.8578
51.8578
12.9644
12.9644
37.344
37.344
20.0853
20.0853
32.2735
32.2735
15.5587
15.5587
28.9278
28.9278
41.6631
41.6631
17.3581
17.3581
25
25
11.2042
11.2042
20.8316
20.8316
30.0026
30.0026
9.00154
9.00154
23.2409
23.2409
43.2111
43.2111
15.0013
15.0013
21.6055
21.6055
13.9457
13.9457
22.4083
22.4083
36.0062
36.0062
15.0013
15.0013
30.0026
30.0026
53.7845
53.7845
25
25
34.7163
34.7163
9.33599
9.33599
12.5
12.5
38.7315
38.7315
15.5587
15.5587
31.1173
31.1173
41.6631
41.6631
20.0853
20.0853
36.0062
36.0062
13.4461
13.4461
26.8923
26.8923
9.00154
9.00154
43.2111
43.2111
16.1367
16.1367
23.2409
23.2409
33.4726
33.4726
12.5
12.5
25
25
33.4726
33.4726
7.77933
7.77933
15.5587
15.5587
33.4726
33.4726
57.8555
57.8555
24.1044
24.1044
31.1173
31.1173
55.7829
55.7829
22.4083
22.4083
30.0026
30.0026
55.7829
55.7829
21.6055
21.6055
23.2409
23.2409
92.9635
92.9635
20.8316
20.8316
33.4726
33.4726
72.0123
72.0123
18.0031
18.0031
32.2735
32.2735
74.6879
74.6879
17.3581
17.3581
19.3657
19.3657
50
50
15.0013
15.0013
37.344
37.344
46.4818
46.4818
18.0031
18.0031
36.0062
36.0062
50
50
18.672
18.672
31.1173
31.1173
69.4326
69.4326
18.0031
18.0031
22.4083
22.4083
37.344
37.344
17.3581
17.3581
27.8914
27.8914
50
50
18.672
18.672
26.8923
26.8923
48.2088
48.2088
12.9644
12.9644
25
25
37.344
37.344
10.8028
10.8028
13.4461
13.4461
27.8914
27.8914
46.4818
46.4818
16.1367
16.1367
12.0522
12.0522
33.4726
33.4726
12.5
12.5
20.0853
20.0853
27.8914
27.8914
53.7845
53.7845
16.7363
16.7363
22.4083
22.4083
28.9278
28.9278
51.8578
51.8578
20.0853
20.0853
20.8316
20.8316
41.6631
41.6631
10.0426
10.0426
18.0031
18.0031
37.344
37.344
44.8166
44.8166
13.9457
13.9457
25.9289
25.9289
33.4726
33.4726
34.7163
34.7163
64.547
64.547
13.4461
13.4461
25
25
38.7315
38.7315
66.9452
66.9452
20.8316
20.8316
25.9289
25.9289
40.1706
40.1706
62.2346
62.2346
16.7363
16.7363
26.8923
26.8923
31.1173
31.1173
50
50
15.5587
15.5587
25
25
28.9278
28.9278
38.7315
38.7315
38.7315
38.7315
13.4461
13.4461
13.4461
13.4461
31.1173
31.1173
36.0062
36.0062
38.7315
38.7315
11.6204
11.6204
20.0853
20.0853
27.8914
27.8914
36.0062
36.0062
34.7163
34.7163
27.8914
27.8914
21.6055
21.6055
25
25
31.1173
31.1173
43.2111
43.2111
20.8316
20.8316
12.9644
12.9644
24.1044
24.1044
31.1173
31.1173
40.1706
40.1706
18.672
18.672
17.3581
17.3581
17.3581
17.3581
25.9289
25.9289
34.7163
34.7163
31.1173
31.1173
33.4726
33.4726
12.0522
12.0522
20.8316
20.8316
28.9278
28.9278
20.0853
20.0853
43.2111
43.2111
12.0522
12.0522
15.5587
15.5587
25
25
11.6204
11.6204
31.1173
31.1173
34.7163
34.7163
28.9278
28.9278
20.8316
20.8316
18.0031
18.0031
19.3657
19.3657
23.2409
23.2409
24.1044
24.1044
24.1044
24.1044
25
25
21.6055
21.6055
23.2409
23.2409
21.6055
21.6055
10.8028
10.8028
15.5587
15.5587
19.3657
19.3657
13.9457
13.9457
16.7363
16.7363
21.6055
21.6055
19.3657
19.3657
19.3657
19.3657
11.2042
11.2042
17.3581
17.3581
19.3657
19.3657
15.5587
15.5587
18.672
18.672
16.1367
16.1367
20.8316
20.8316
20.8316
20.8316
18.672
18.672
19.3657
19.3657
18.672
18.672
16.1367
16.1367
13.4461
13.4461
17.3581
17.3581
16.7363
16.7363
14.4639
14.4639
15.5587
15.5587
15.0013
15.0013
17.3581
17.3581
18.672
18.672
14.4639
14.4639
13.9457
13.9457
10.4158
10.4158
9.00154
9.00154
13.9457
13.9457
9.68287
9.68287
10.4158
10.4158
15.0013
15.0013
8.06837
8.06837
8.67907
8.67907
11.2042
11.2042
28.9278
28.9278
10.8028
10.8028
13.9457
13.9457
57.8555
57.8555
57.8555
57.8555
62.2346
62.2346
62.2346
62.2346
66.9452
66.9452
64.547
64.547
62.2346
62.2346
66.9452
66.9452
83.3262
83.3262
10.8028
10.8028
18.672
18.672
11.6204
11.6204
33.4726
33.4726
11.2042
11.2042
37.344
37.344
8.06837
8.06837
34.7163
34.7163
41.6631
41.6631
9.68287
9.68287
33.4726
33.4726
37.344
37.344
77.463
77.463
23.2409
23.2409
21.6055
21.6055
23.2409
23.2409
27.8914
27.8914
25
25
32.2735
32.2735
8.67907
8.67907
11.6204
11.6204
24.1044
24.1044
21.6055
21.6055
33.4726
33.4726
30.0026
30.0026
31.1173
31.1173
12.5
12.5
20.8316
20.8316
25.9289
25.9289
17.3581
17.3581
11.2042
11.2042
16.7363
16.7363
13.9457
13.9457
13.9457
13.9457
21.6055
21.6055
15.0013
15.0013
12.5
12.5
14.4639
14.4639
13.4461
13.4461
12.9644
12.9644
9.00154
9.00154
12.0522
12.0522
10.0426
10.0426
72.0123
72.0123
46.4818
46.4818
55.7829
55.7829
38.7315
38.7315
43.2111
43.2111
48.2088
48.2088
46.4818
46.4818
41.6631
41.6631
44.8166
44.8166
46.4818
46.4818
44.8166
44.8166
36.0062
36.0062
41.6631
41.6631
48.2088
48.2088
43.2111
43.2111
44.8166
44.8166
41.6631
41.6631
40.1706
40.1706
36.0062
36.0062
36.0062
36.0062
22.4083
22.4083
25
25
11.2042
11.2042
16.7363
16.7363
21.6055
21.6055
11.6204
11.6204
16.7363
16.7363
46.4818
46.4818
38.7315
38.7315
19.3657
19.3657
23.2409
23.2409
13.4461
13.4461
20.8316
20.8316
57.8555
57.8555
57.8555
57.8555
55.7829
55.7829
40.1706
40.1706
33.4726
33.4726
16.7363
16.7363
16.1367
16.1367
14.4639
14.4639
69.4326
69.4326
46.4818
46.4818
19.3657
19.3657
20.0853
20.0853
14.4639
14.4639
64.547
64.547
41.6631
41.6631
25.9289
25.9289
13.9457
13.9457
48.2088
48.2088
30.0026
30.0026
24.1044
24.1044
10.8028
10.8028
96.4176
96.4176
25
25
23.2409
23.2409
13.9457
13.9457
51.8578
51.8578
18.0031
18.0031
13.4461
13.4461
34.7163
34.7163
20.0853
20.0853
69.4326
69.4326
23.2409
23.2409
10.8028
10.8028
36.0062
36.0062
10.4158
10.4158
57.8555
57.8555
16.1367
16.1367
44.8166
44.8166
26.8923
26.8923
38.7315
38.7315
21.6055
21.6055
37.344
37.344
22.4083
22.4083
28.9278
28.9278
12.5
12.5
28.9278
28.9278
15.0013
15.0013
24.1044
24.1044
18.672
18.672
37.344
37.344
13.9457
13.9457
24.1044
24.1044
14.4639
14.4639
13.9457
13.9457
7.00259e-312
7.00259e-312
7.00259e-312
7.00259e-312
7.00259e-312
7.00259e-312
7.00259e-312
7.00259e-312
7.00259e-312
7.00259e-312
7.00259e-312
7.00259e-312
7.00259e-312
7.00259e-312
7.00259e-312
7.00259e-312
7.00259e-312
7.00259e-312
7.00259e-312
7.00259e-312
7.00259e-312
7.00259e-312
7.00259e-312
7.00259e-312
7.00259e-312
7.00259e-312
7.00259e-312
7.00259e-312
7.00259e-312
7.00259e-312
7.00259e-312
7.00259e-312
7.00259e-312
7.00259e-312
7.00259e-312
7.00259e-312
7.00259e-312
7.00259e-312
7.00259e-312
7.00259e-312
7.00259e-312
7.00259e-312
7.00259e-312
7.00259e-312
7.00259e-312
7.00259e-312
7.00259e-312
7.00259e-312
7.00259e-312
7.00259e-312
7.00259e-312
7.00259e-312
7.00259e-312
7.00259e-312
7.00259e-312
7.00259e-312
7.00259e-312
7.00259e-312
7.00259e-312
7.00259e-312
7.00259e-312
7.00259e-312
7.00259e-312
7.00259e-312
7.00259e-312
7.00259e-312
7.00259e-312
7.00259e-312
7.00259e-312
7.00259e-312
7.00259e-312
7.00259e-312
7.00259e-312
7.00259e-312
7.00259e-312
7.00259e-312
7.00259e-312
7.00259e-312
7.00259e-312
7.00259e-312
7.00259e-312
7.00259e-312
7.00259e-312
7.00259e-312
7.00259e-312
7.00259e-312
7.00259e-312
7.00259e-312
7.00259e-312
7.00259e-312
7.00259e-312
7.00259e-312
7.00259e-312
7.00259e-312
7.00259e-312
7.00259e-312
7.00259e-312
7.00259e-312
7.00259e-312
7.00259e-312
7.00259e-312
7.00259e-312
7.00259e-312
7.00259e-312
7.00259e-312
7.00259e-312
7.00259e-312
7.00259e-312
7.00259e-312
7.00259e-312
7.00259e-312
7.00259e-312
7.00259e-312
7.00259e-312
7.00259e-312
7.00259e-312
7.00259e-312
7.00259e-312
7.00259e-312
7.00259e-312
7.00259e-312
7.00259e-312
7.00259e-312
7.00259e-312
7.00259e-312
7.00259e-312
7.00259e-312
7.00259e-312
7.00259e-312
7.00259e-312
7.00259e-312
7.00259e-312
7.00259e-312
7.00259e-312
7.00259e-312
7.00259e-312
7.00259e-312
7.00259e-312
7.00259e-312
7.00259e-312
7.00259e-312
7.00259e-312
7.00259e-312
7.00259e-312
7.00259e-312
7.00259e-312
7.00259e-312
7.00259e-312
7.00259e-312
7.00259e-312
7.00259e-312
7.00259e-312
7.00259e-312
7.00259e-312
7.00259e-312
7.00259e-312
7.00259e-312
7.00259e-312
7.00259e-312
7.00259e-312
7.00259e-312
7.00259e-312
7.00259e-312
7.00259e-312
7.00259e-312
7.00259e-312
7.00259e-312
7.00259e-312
7.00259e-312
7.00259e-312
7.00259e-312
7.00259e-312
7.00259e-312
7.00259e-312
7.00259e-312
7.00259e-312
7.00259e-312
7.00259e-312
7.00259e-312
7.00259e-312
7.00259e-312
7.00259e-312
7.00259e-312
7.00259e-312
7.00259e-312
7.00259e-312
7.00259e-312
7.00259e-312
7.00259e-312
7.00259e-312
7.00259e-312
7.00259e-312
7.00259e-312
7.00259e-312
7.00259e-312
7.00259e-312
7.00259e-312
7.00259e-312
7.00259e-312
7.00259e-312
7.00259e-312
7.00259e-312
7.00259e-312
7.00259e-312
7.00259e-312
7.00259e-312
7.00259e-312
7.00259e-312
7.00259e-312
7.00259e-312
7.00259e-312
7.00259e-312
7.00259e-312
7.00259e-312
7.00259e-312
7.00259e-312
7.00259e-312
7.00259e-312
7.00259e-312
7.00259e-312
7.00259e-312
7.00259e-312
7.00259e-312
7.00259e-312
7.00259e-312
7.00259e-312
7.00259e-312
7.00259e-312
7.00259e-312
7.00259e-312
7.00259e-312
7.00259e-312
7.00259e-312
7.00259e-312
7.00259e-312
7.00259e-312
7.00259e-312
7.00259e-312
7.00259e-312
7.00259e-312
7.00259e-312
7.00259e-312
7.00259e-312
7.00259e-312
7.00259e-312
7.00259e-312
7.00259e-312
7.00259e-312
7.00259e-312
7.00259e-312
7.00259e-312
7.00259e-312
7.00259e-312
7.00259e-312
7.00259e-312
7.00259e-312
7.00259e-312
7.00259e-312
7.00259e-312
7.00259e-312
7.00259e-312
7.00259e-312
7.00259e-312
7.00259e-312
7.00259e-312
7.00259e-312
7.00259e-312
7.00259e-312
7.00259e-312
7.00259e-312
7.00259e-312
7.00259e-312
7.00259e-312
7.00259e-312
7.00259e-312
7.00259e-312
7.00259e-312
7.00259e-312
7.00259e-312
7.00259e-312
7.00259e-312
7.00259e-312
7.00259e-312
7.00259e-312
7.00259e-312
7.00259e-312
7.00259e-312
7.00259e-312
7.00259e-312
7.00259e-312
7.00259e-312
7.00259e-312
7.00259e-312
7.00259e-312
7.00259e-312
7.00259e-312
7.00259e-312
7.00259e-312
7.00259e-312
7.00259e-312
7.00259e-312
7.00259e-312
7.00259e-312
7.00259e-312
7.00259e-312
7.00259e-312
7.00259e-312
7.00259e-312
7.00259e-312
7.00259e-312
7.00259e-312
7.00259e-312
7.00259e-312
7.00259e-312
7.00259e-312
7.00259e-312
7.00259e-312
7.00259e-312
7.00259e-312
7.00259e-312
7.00259e-312
7.00259e-312
7.00259e-312
7.00259e-312
7.00259e-312
7.00259e-312
7.00259e-312
7.00259e-312
7.00259e-312
7.00259e-312
7.00259e-312
7.00259e-312
7.00259e-312
7.00259e-312
7.00259e-312
7.00259e-312
7.00259e-312
7.00259e-312
7.00259e-312
7.00259e-312
7.00259e-312
7.00259e-312
7.00259e-312
7.00259e-312
7.00259e-312
7.00259e-312
7.00259e-312
7.00259e-312
7.00259e-312
7.00259e-312
7.00259e-312
7.00259e-312
7.00259e-312
7.00259e-312
7.00259e-312
7.00259e-312
7.00259e-312
7.00259e-312
7.00259e-312
7.00259e-312
7.00259e-312
7.00259e-312
7.00259e-312
7.00259e-312
7.00259e-312
7.00259e-312
7.00259e-312
7.00259e-312
7.00259e-312
7.00259e-312
7.00259e-312
7.00259e-312
7.00259e-312
7.00259e-312
7.00259e-312
7.00259e-312
7.00259e-312
7.00259e-312
7.00259e-312
7.00259e-312
7.00259e-312
7.00259e-312
7.00259e-312
7.00259e-312
7.00259e-312
7.00259e-312
7.00259e-312
7.00259e-312
7.00259e-312
7.00259e-312
7.00259e-312
7.00259e-312
7.00259e-312
7.00259e-312
7.00259e-312
7.00259e-312
7.00259e-312
7.00259e-312
7.00259e-312
7.00259e-312
7.00259e-312
7.00259e-312
7.00259e-312
7.00259e-312
7.00259e-312
7.00259e-312
7.00259e-312
7.00259e-312
7.00259e-312
7.00259e-312
7.00259e-312
7.00259e-312
7.00259e-312
7.00259e-312
7.00259e-312
7.00259e-312
7.00259e-312
7.00259e-312
7.00259e-312
7.00259e-312
7.00259e-312
7.00259e-312
7.00259e-312
7.00259e-312
7.00259e-312
7.00259e-312
7.00259e-312
7.00259e-312
7.00259e-312
