# vtk DataFile Version 3.0
Tree
ASCII
DATASET POLYDATA
POINTS 1732 float
40693.5 56318.5 68.45
40693.5 56318.5 2568.45
34443.5 55443.5 6443.45
34181.5 53559.5 10821.5
34281.1 54275.4 9157.84
34181.5 52569.5 14038.5
33944.1 52489.7 13680
33191.5 49847.5 19730.4
33597.9 51274.3 16463.2
39130.5 49104.5 19730.4
38156.5 49170.7 18605.8
42843.5 45392.5 17998.4
34281.1 54275.4 9157.84
28983.5 50837.5 13048.5
29215.3 51108.2 12391.9
25270.5 48857.5 14038.5
29071.6 50940.4 12799
28736.5 49352.5 17256.4
34091.3 52539.2 13902.3
37645.5 51827.5 14780.5
28480.5 49538.6 16260.8
26261.5 47619.5 18741.4
32952.5 50208.3 18760.2
30221.5 48362.5 22700.4
27282.2 48502.3 17600.3
24280.4 46877.5 16265.5
38760.4 49129.6 19303
37398.5 49352.5 23196.4
31130 49330.3 20853.8
28983.5 48857.5 25670.5
37916 49267.8 21716.9
40615.5 47867.5 26413.5
41924.5 45927.5 18578.2
45318.5 41927.5 20968.4
43824.4 43231.7 19594.1
45070.5 38957.5 18493.4
30314.3 49150.6 22684.2
33933.5 49847.5 27403.5
29489.2 48968.9 24535.7
24033.4 47124.5 25670.5
39462.8 48461.5 25497.4
39130.5 48609.5 31611.5
44877 40003 19259.7
46803.5 35739.5 21215.4
32705.9 49624.5 27002.1
33685.5 49847.5 31363.5
46129.2 36781.3 20219.1
46803.5 32522.5 18988.4
46355.7 36062.9 20984.6
46061.5 34254.5 23196.4
33313.3 49762.8 29706.2
28241.5 50094.5 34085.5
29414.9 49782.2 32357.9
23943.5 48693.4 32693.5
37962.3 49174.5 20519.6
35170.5 49104.5 21958.4
44750.7 42423.1 20446.2
45813.5 41432.5 26908.5
28687.4 49975.8 33429
30715.5 50589.5 39530.5
44997 39354.8 18784.6
43338.5 39699.5 13295.5
39801.3 48315.2 30060.6
43091.5 46877.5 35818.5
25421.1 47494.9 16772.7
22795.4 45392.5 18741.4
45545.4 41051.5 25062.5
46555.5 36234.5 29878.5
42494.3 45595.8 18218.7
43585.5 42917.5 16018.5
23194.7 45400.6 18225.5
19578.4 41184.5 18741.4
45955.4 36805.7 29723.4
45566.5 32769.5 34828.5
45506.5 33794.4 32404.4
43943.4 27693.5 33193.4
24952.1 47206.7 25225.6
20073.4 44154.5 24681.4
41578 47538.8 33169.8
38388.5 48609.5 39036.5
20916.6 42432.8 18290.3
19826.4 40937.5 17503.4
39176.5 48587 31013.9
37398.5 49352.5 32106.5
22067.2 45051.1 25435.1
19330.4 41184.5 28393.5
19906.3 40498.7 19668.3
19330.4 35492.5 22948.4
20173.4 41674.1 27733.3
20073.4 37224.5 29383.5
30714 50511.7 37858.4
32448.5 50837.5 38788.5
31979.9 50524.1 38700.3
34428.5 49599.5 41015.5
30714.9 50559.9 38895.1
28241.5 48857.5 40768.5
28666.7 48970.7 40262.7
26508.5 46382.5 40768.5
26917.4 46768.5 40383.6
24033.4 42669.5 39283.5
44537.4 30011.9 32893.6
41606.5 28314.5 37798.5
42432.4 29084.7 36855.4
41853.5 30542.5 40521.5
43997.3 28210.8 32901.6
42843.5 25592.5 31858.5
34142 49623 40851.9
36903.5 48362.5 43738.5
43963.9 27890.1 33082.5
41606.5 26334.5 34581.5
41975.2 30495.4 39912.7
41606.5 33017.5 43243.5
28403.1 48900.5 40576.3
27745.5 47372.5 42253.5
42432.4 29084.7 36855.4
39873.5 28809.5 40025.5
36053.9 48702.8 43167
36160.5 48362.5 45223.5
42681.2 25877.3 31998.5
40615.5 22869.4 30868.5
41199.9 23541.1 30674.9
39625.5 20147.4 26660.5
39864.8 20753.8 27000.4
39130.5 19404.4 24433.4
27888.5 47403.8 41904.5
27498.5 44649.5 42995.5
41585.6 32141 42801.2
41110.5 32769.5 45470.5
27603.8 44977.4 43116.9
27498.5 41679.5 45966.5
27474.5 42370 44567.8
27003.5 36482.5 44728.5
27463.2 37410.3 44897.7
28241.5 34749.5 45470.5
28346.5 35050.8 45380.8
29728.5 32024.5 45968.5
27468.4 39691.7 44746
29230.5 37719.5 48688.5
42579.3 46780.7 35511.2
44081.5 44154.5 41758.5
39864.8 20753.8 27000.4
43338.5 21384.4 20226.4
20115.4 36039.5 22537.4
21311.4 30294.5 26166.5
21300.3 31776.4 25914.2
23538.4 29799.5 31363.5
21307.2 30857.6 26070.6
23785.4 25839.5 24433.4
27178.2 36835.1 44792.8
24528.4 34749.5 38788.5
23792.4 30016.3 31005.7
27003.5 28314.5 36313.5
26760.2 28358.2 34984.3
31458.5 25344.5 37055.5
43446.6 44694 40867.6
42443.4 42943.4 47443.4
45042.6 39108.5 18604.1
45070.5 34502.5 16018.5
33100.7 49984.6 19361.7
34428.5 50094.5 20226.4
26688.1 47928.5 18515.2
26756.5 47619.5 19978.4
45167 35261 15954.3
45813.5 31037.5 10573.5
45158.5 32184.4 13500.2
44823.5 30047.5 12801.5
25821.5 45210.9 39965.5
23538.4 45392.5 37303.5
24342.9 43251.8 39155.7
22795.4 41927.5 37055.5
24486.9 44701.6 38392.6
23785.4 43907.5 37551.5
24614.2 35416.9 39393
21806.4 34749.5 34085.5
41013.7 20423.7 23356.5
40863.5 19652.4 21711.4
41066.7 19741.4 21968.3
41853.5 17919.4 18493.4
42746.5 42894.1 45212.3
42100.5 38214.5 47946.5
23497.5 26813.3 24286.5
26508.5 23117.4 20226.4
23653 26287.4 24365.8
26756.5 24849.4 30126.5
20240.7 41505.7 17802.4
20073.4 35244.5 15771.5
45766.8 38758.8 27579.4
46308.5 40937.5 33838.5
20612.2 36000.7 15867
21806.4 30789.5 13791.5
46092.9 40037.3 32876.3
45813.5 38709.5 39036.5
25212.2 24445.5 21023.7
24776.4 23364.4 15771.5
40372.1 21813 28396.7
34428.5 19899.4 26908.5
37162.6 20779.7 27593.1
32448.5 21879.4 31858.5
40492.7 47159.9 18588.7
43091.5 46134.5 22453.4
45711.6 41287.7 26207
44328.5 45392.5 28145.5
23394.2 46042.7 25338.7
21063.4 44897.5 30621.5
44332.1 29327.5 32896.6
44823.5 26829.5 28888.5
26911.1 28331.1 35808.4
27498.5 30542.5 39283.5
33752.1 49716.9 27473.5
36408.5 49599.5 29136.5
44314.1 44684.6 28096.1
43091.5 46382.5 29630.5
22083.8 31469.1 13769.7
23291.4 28809.5 12306.5
24603.5 23970.5 16408.2
23785.4 24602.4 13543.5
26332.5 23171.1 20147.8
29973.5 18662.4 16760.4
22970.7 42319.6 37172.2
21063.4 42174.5 33838.5
21911.8 31047.8 13783.2
22300.4 27819.5 17256.4
27275.3 29702.2 37963
30221.5 28562.5 40768.5
21309.6 44710.4 25148.7
21063.4 43907.5 21711.4
33594.9 49811.1 31170.7
34181.5 49847.5 35076.5
43840.2 44359.5 41420
44823.5 39947.5 42995.5
33751.9 21529.2 30088.4
29973.5 22127.4 29878.5
25767.2 48993.4 32181.9
23291.4 48114.5 29878.5
22862 42076.5 37099.8
22053.4 38462.5 35818.5
22327.3 42087 36013.3
22053.4 40937.5 35323.5
33046.5 50362.3 40124.5
33438.5 50589.5 41015.5
22484.6 27970.7 16769.2
23291.4 25592.5 18493.4
33729.5 51736.1 15405.6
30963.5 51084.5 16265.5
19813 39009.7 21283.3
18836.4 38462.5 25670.5
40686.7 22469.7 29262.4
43338.5 22374.4 24928.4
26900.2 47787.1 19626.4
29478.5 48114.5 21463.4
38074.1 49061.6 31691.3
37151.5 48609.5 35076.5
23774.8 34692.9 37286.4
24033.4 31532.5 34581.5
37406.3 49357.4 22990.4
36160.5 49599.5 25423.5
21291.8 42139.5 33946
20073.4 42174.5 31115.5
44162.2 40596.9 42838
43585.5 37224.5 44233.5
22947.1 45395.6 18545.4
23538.4 45392.5 20968.4
19207.5 38670.4 24003.4
19826.4 35492.5 25670.5
19910.2 36997.5 21743.9
19578.4 33759.5 20721.4
42240.3 39166.2 47000.4
43091.5 36729.5 46461.5
42883.6 45895.6 22010.8
44576.5 44402.5 24185.4
46008 40648.9 33686.6
45070.5 42669.5 36808.5
24151 42890.8 39234.9
25270.5 40442.5 41510.5
26811.1 47683.2 19844.7
26508.5 47372.5 22453.4
45713 35179.6 31171.1
46061.5 32027.5 30126.5
27940.2 36136.2 45158.6
27251.5 33264.5 42500.5
29097.1 48905.4 25529
28241.5 48857.5 28145.5
20374.6 37460.8 29264.7
20321.4 35492.5 30126.5
26773.8 25194.5 29852.5
29478.5 24849.4 34085.5
45352.8 38778.7 19624.3
46555.5 38462.5 22700.4
42954 20974.7 20571.7
43585.5 20889.4 19483.4
41639.6 30972.7 41122.8
41110.5 30789.5 41758.5
42015.5 36473.2 46244.2
42100.5 34997.5 45223.5
45634.5 34653.3 31639.8
45813.5 35739.5 36066.5
24710.7 23594.7 16013.4
26693.5 20943.5 16443.5
20565.2 44195.5 24677.1
19083.4 42422.5 22948.4
20299.1 39784.4 28881.5
20568.4 38709.5 32106.5
42582.8 42920.7 46417.1
40943.4 44693.4 47443.4
45774.8 41377.5 26641.9
45318.5 43164.5 29136.5
20755.2 33737.4 24360.9
21558.4 29304.5 22453.4
36932.9 49449.4 23915
34675.5 49352.5 23938.4
28330.3 49999.4 34028
27251.5 49847.5 36066.5
29314.6 24655 33277.6
31211.5 23859.4 34828.5
20144.7 40821.3 19125.4
19083.4 37967.5 19235.4
44319.6 26935.8 29893.9
43585.5 24354.4 27898.5
38989.9 49114.1 19568
40368.5 48114.5 21463.4
41199.1 47606.8 31822.6
44328.5 45639.5 33096.5
42920.1 45320.5 39857.9
41358.5 45144.5 43985.5
40546.9 47958.6 26304.8
42348.5 47372.5 27403.5
45515.6 33115.5 34485.8
45318.5 33264.5 37055.5
36298.1 50239.3 17356.8
38883.5 50342.5 16265.5
19750.7 35894.1 25707
20073.4 34254.5 26908.5
38221.1 50098.5 16751.5
40615.5 48857.5 17008.4
19458.3 37239.6 25177.2
19330.4 36977.5 27155.5
27720.8 34360.7 43816.8
28488.5 32274.5 43738.5
20777.2 43435.2 26052.6
19083.4 42174.5 25670.5
28002 48133.8 40308.6
25765.5 47867.5 38293.5
32135.9 52790.1 11574.8
31706.5 52322.5 13295.5
24497.7 48568.2 32391.3
22300.4 46877.5 32106.5
31675.6 51087.3 16206.6
30715.5 49847.5 17503.4
22824.5 47091.4 32322
21806.4 45144.5 33096.5
34342.8 54719.3 8126.37
32193.5 53193.4 8693.45
45226.3 42600.4 36336.4
44823.5 44154.5 37798.5
35355.6 49190.7 21543.9
33438.5 49352.5 21711.4
34248.5 49838.8 34832.1
34923.5 49847.5 37551.5
42798.4 44687.4 19045.5
43833.5 44897.5 20473.4
20787.6 35203.5 29777.5
20815.4 33017.5 28888.5
43203.6 43681.6 16961.9
43585.5 41679.5 17256.4
42989.5 22498.6 25006.9
43833.5 22622.4 22948.4
24574.7 35109.9 39114.9
25270.5 34502.5 39036.5
22281.3 44355.6 18003.3
21063.4 43659.5 16513.4
45741.9 32343.2 30460.8
45318.5 29552.5 30126.5
44356.7 41814.4 18997.6
44823.5 40937.5 17750.4
38434.6 48488.8 38324
36903.5 48857.5 40273.5
36188.4 49512.4 24964.8
34428.5 49352.5 25918.5
44572.2 40194.3 42935.6
45318.5 38957.5 41510.5
26117.8 47636.4 24789.8
24528.4 46877.5 23443.4
22604.4 40270.9 36749.2
23043.4 38214.5 37798.5
43612.3 45179.4 22659.9
44823.5 43659.5 22453.4
20804.8 33848.2 29226.3
21558.4 32274.5 30373.5
36171.1 49566.4 25249.2
38388.5 49104.5 25423.5
22362.4 28887.9 15515.1
23043.4 26829.5 15276.5
24289.8 47194.6 25687.1
23043.4 47372.5 27155.5
23790.2 32420.4 35034.5
22795.4 31779.5 32600.5
21330.5 44238.8 22120.6
21806.4 44402.5 20226.4
43533.7 29722.1 35179.8
43833.5 30789.5 37055.5
36177.7 49545.9 25141.1
37398.5 49352.5 26908.5
41598.6 32684.4 43075.4
42595.5 34254.5 42500.5
21151.7 43998.9 21744.9
20568.4 43164.5 20226.4
44029.3 41660.5 42685.1
43833.5 40937.5 44480.5
24035.6 46649.2 25050.4
22300.4 46134.5 23691.4
41999.8 24802.7 31389.7
42348.5 24354.4 29630.5
44406.3 44373.9 24043.9
45070.5 43412.5 25423.5
22245.5 29236.4 25775.5
23785.4 27077.5 27403.5
30714.9 49723.3 30741.6
[...]
CELL_DATA 1731
SCALARS radius float
LOOKUP_TABLE default
2.122e-314
100
100
100
83.3262
83.3262
66.9452
66.9452
55.7829
55.7829
46.4818
46.4818
80.3411
80.3411
64.547
64.547
62.2346
62.2346
64.547
64.547
55.7829
55.7829
50
50
50
50
44.8166
44.8166
43.2111
43.2111
41.6631
41.6631
41.6631
41.6631
37.344
37.344
41.6631
41.6631
37.344
37.344
37.344
37.344
33.4726
33.4726
37.344
37.344
27.8914
27.8914
25.9289
25.9289
34.7163
34.7163
27.8914
27.8914
43.2111
43.2111
34.7163
34.7163
26.8923
26.8923
31.1173
31.1173
32.2735
32.2735
48.2088
48.2088
30.0026
30.0026
38.7315
38.7315
44.8166
44.8166
23.2409
23.2409
17.3581
17.3581
32.2735
32.2735
27.8914
27.8914
38.7315
38.7315
31.1173
31.1173
27.8914
27.8914
34.7163
34.7163
24.1044
24.1044
24.1044
24.1044
22.4083
22.4083
23.2409
23.2409
20.8316
20.8316
19.3657
19.3657
16.1367
16.1367
13.4461
13.4461
14.4639
14.4639
20.8316
20.8316
13.9457
13.9457
11.6204
11.6204
20.0853
20.0853
12.9644
12.9644
19.3657
19.3657
13.4461
13.4461
12.0522
12.0522
10.8028
10.8028
18.672
18.672
10.4158
10.4158
17.3581
17.3581
15.0013
15.0013
12.9644
12.9644
10.8028
10.8028
13.9457
13.9457
25.9289
25.9289
10.4158
10.4158
27.8914
27.8914
25.9289
25.9289
24.1044
24.1044
12.5
12.5
20.0853
20.0853
18.672
18.672
20.0853
20.0853
28.9278
28.9278
48.2088
48.2088
48.2088
48.2088
25.9289
25.9289
24.1044
24.1044
18.672
18.672
16.1367
16.1367
18.0031
18.0031
10.8028
10.8028
10.0426
10.0426
9.33599
9.33599
19.3657
19.3657
20.0853
20.0853
19.3657
19.3657
37.344
37.344
26.8923
26.8923
33.4726
33.4726
22.4083
22.4083
17.3581
17.3581
11.2042
11.2042
10.8028
10.8028
43.2111
43.2111
27.8914
27.8914
30.0026
30.0026
15.0013
15.0013
18.0031
18.0031
36.0062
36.0062
26.8923
26.8923
28.9278
28.9278
16.7363
16.7363
15.5587
15.5587
15.5587
15.5587
27.8914
27.8914
16.7363
16.7363
25.9289
25.9289
33.4726
33.4726
19.3657
19.3657
9.68287
9.68287
25.9289
25.9289
15.0013
15.0013
14.4639
14.4639
21.6055
21.6055
24.1044
24.1044
60.0051
60.0051
32.2735
32.2735
11.6204
11.6204
46.4818
46.4818
30.0026
30.0026
9.33599
9.33599
40.1706
40.1706
12.9644
12.9644
18.0031
18.0031
43.2111
43.2111
30.0026
30.0026
28.9278
28.9278
17.3581
17.3581
38.7315
38.7315
21.6055
21.6055
15.5587
15.5587
43.2111
43.2111
20.8316
20.8316
12.5
12.5
36.0062
36.0062
22.4083
22.4083
16.1367
16.1367
31.1173
31.1173
9.33599
9.33599
11.2042
11.2042
16.1367
16.1367
19.3657
19.3657
16.1367
16.1367
25
25
23.2409
23.2409
18.672
18.672
26.8923
26.8923
26.8923
26.8923
38.7315
38.7315
25.9289
25.9289
13.9457
13.9457
37.344
37.344
14.4639
14.4639
43.2111
43.2111
30.0026
30.0026
21.6055
21.6055
34.7163
34.7163
16.7363
16.7363
50
50
26.8923
26.8923
46.4818
46.4818
28.9278
28.9278
12.0522
12.0522
25.9289
25.9289
20.0853
20.0853
74.6879
74.6879
25
25
55.7829
55.7829
22.4083
22.4083
86.4222
86.4222
20.0853
20.0853
38.7315
38.7315
30.0026
30.0026
38.7315
38.7315
20.8316
20.8316
34.7163
34.7163
10.4158
10.4158
10.4158
10.4158
41.6631
41.6631
20.0853
20.0853
36.0062
36.0062
22.4083
22.4083
37.344
37.344
17.3581
17.3581
33.4726
33.4726
14.4639
14.4639
36.0062
36.0062
20.0853
20.0853
34.7163
34.7163
25
25
30.0026
30.0026
8.06837
8.06837
23.2409
23.2409
14.4639
14.4639
36.0062
36.0062
10.0426
10.0426
22.4083
22.4083
18.672
18.672
31.1173
31.1173
12.5
12.5
34.7163
34.7163
21.6055
21.6055
32.2735
32.2735
26.8923
26.8923
15.0013
15.0013
34.7163
34.7163
17.3581
17.3581
28.9278
28.9278
16.7363
16.7363
32.2735
32.2735
13.4461
13.4461
25
25
20.8316
20.8316
33.4726
33.4726
11.6204
11.6204
12.5
12.5
16.1367
16.1367
28.9278
28.9278
10.0426
10.0426
21.6055
21.6055
13.4461
13.4461
31.1173
31.1173
69.4326
69.4326
24.1044
24.1044
43.2111
43.2111
21.6055
21.6055
9.00154
9.00154
28.9278
28.9278
15.5587
15.5587
20.8316
20.8316
77.463
77.463
26.8923
26.8923
26.8923
26.8923
18.672
18.672
30.0026
30.0026
15.0013
15.0013
30.0026
30.0026
10.4158
10.4158
28.9278
28.9278
55.7829
55.7829
20.0853
20.0853
46.4818
46.4818
16.1367
16.1367
34.7163
34.7163
10.8028
10.8028
27.8914
27.8914
16.1367
16.1367
31.1173
31.1173
11.2042
11.2042
13.9457
13.9457
66.9452
66.9452
26.8923
26.8923
44.8166
44.8166
9.00154
9.00154
34.7163
34.7163
16.1367
16.1367
25
25
48.2088
48.2088
23.2409
23.2409
32.2735
32.2735
13.4461
13.4461
30.0026
30.0026
12.9644
12.9644
21.6055
21.6055
46.4818
46.4818
28.9278
28.9278
31.1173
31.1173
18.0031
18.0031
26.8923
26.8923
62.2346
62.2346
25
25
21.6055
21.6055
15.5587
15.5587
26.8923
26.8923
15.0013
15.0013
27.8914
27.8914
41.6631
41.6631
15.0013
15.0013
24.1044
24.1044
15.0013
15.0013
18.0031
18.0031
44.8166
44.8166
34.7163
34.7163
25
25
25.9289
25.9289
77.463
77.463
24.1044
24.1044
46.4818
46.4818
23.2409
23.2409
34.7163
34.7163
21.6055
21.6055
28.9278
28.9278
89.6332
89.6332
13.4461
13.4461
12.9644
12.9644
36.0062
36.0062
16.1367
16.1367
15.0013
15.0013
41.6631
41.6631
16.7363
16.7363
30.0026
30.0026
44.8166
44.8166
19.3657
19.3657
30.0026
30.0026
53.7845
53.7845
20.0853
20.0853
23.2409
23.2409
36.0062
36.0062
9.68287
9.68287
26.8923
26.8923
40.1706
40.1706
12.0522
12.0522
24.1044
24.1044
69.4326
69.4326
17.3581
17.3581
44.8166
44.8166
10.0426
10.0426
31.1173
31.1173
46.4818
46.4818
22.4083
22.4083
25.9289
25.9289
26.8923
26.8923
40.1706
40.1706
24.1044
24.1044
22.4083
22.4083
37.344
37.344
13.4461
13.4461
23.2409
23.2409
40.1706
40.1706
25
25
25
25
32.2735
32.2735
69.4326
69.4326
24.1044
24.1044
24.1044
24.1044
28.9278
28.9278
72.0123
72.0123
25
25
28.9278
28.9278
57.8555
57.8555
18.0031
18.0031
23.2409
23.2409
40.1706
40.1706
72.0123
72.0123
24.1044
24.1044
26.8923
26.8923
33.4726
33.4726
21.6055
21.6055
33.4726
33.4726
44.8166
44.8166
8.36815
8.36815
30.0026
30.0026
26.8923
26.8923
41.6631
41.6631
9.33599
9.33599
28.9278
28.9278
33.4726
33.4726
53.7845
53.7845
19.3657
19.3657
12.0522
12.0522
34.7163
34.7163
43.2111
43.2111
18.0031
18.0031
13.4461
13.4461
34.7163
34.7163
40.1706
40.1706
16.1367
16.1367
20.0853
20.0853
36.0062
36.0062
41.6631
41.6631
12.9644
12.9644
25.9289
25.9289
28.9278
28.9278
37.344
37.344
12.5
12.5
27.8914
27.8914
28.9278
28.9278
27.8914
27.8914
80.3411
80.3411
21.6055
21.6055
27.8914
27.8914
38.7315
38.7315
22.4083
22.4083
33.4726
33.4726
11.2042
11.2042
25.9289
25.9289
34.7163
34.7163
40.1706
40.1706
33.4726
33.4726
11.6204
11.6204
16.7363
16.7363
25
25
31.1173
31.1173
25
25
33.4726
33.4726
25.9289
25.9289
40.1706
40.1706
16.7363
16.7363
18.672
18.672
34.7163
34.7163
32.2735
32.2735
38.7315
38.7315
10.4158
10.4158
13.9457
13.9457
27.8914
27.8914
33.4726
33.4726
26.8923
26.8923
43.2111
43.2111
64.547
64.547
9.33599
9.33599
25
25
30.0026
30.0026
25.9289
25.9289
36.0062
36.0062
33.4726
33.4726
31.1173
31.1173
25
25
33.4726
33.4726
22.4083
22.4083
21.6055
21.6055
27.8914
27.8914
25.9289
25.9289
25.9289
25.9289
26.8923
26.8923
12.5
12.5
23.2409
23.2409
25
25
26.8923
26.8923
31.1173
31.1173
25.9289
25.9289
26.8923
26.8923
32.2735
32.2735
31.1173
31.1173
31.1173
31.1173
30.0026
30.0026
22.4083
22.4083
12.0522
12.0522
20.8316
20.8316
21.6055
21.6055
26.8923
26.8923
27.8914
27.8914
25
25
23.2409
23.2409
13.4461
13.4461
24.1044
24.1044
13.9457
13.9457
25.9289
25.9289
22.4083
22.4083
20.8316
20.8316
25.9289
25.9289
15.5587
15.5587
19.3657
19.3657
19.3657
19.3657
9.00154
9.00154
22.4083
22.4083
15.0013
15.0013
13.9457
13.9457
17.3581
17.3581
18.0031
18.0031
23.2409
23.2409
13.9457
13.9457
10.8028
10.8028
13.9457
13.9457
13.9457
13.9457
10.4158
10.4158
13.9457
13.9457
23.2409
23.2409
9.00154
9.00154
9.00154
9.00154
25
25
8.67907
8.67907
11.2042
11.2042
20.0853
20.0853
9.68287
9.68287
11.2042
11.2042
17.3581
17.3581
12.5
12.5
12.5
12.5
18.672
18.672
23.2409
23.2409
10.8028
10.8028
18.672
18.672
10.0426
10.0426
10.0426
10.0426
16.7363
16.7363
15.5587
15.5587
16.7363
16.7363
19.3657
19.3657
16.7363
16.7363
12.0522
12.0522
18.0031
18.0031
12.0522
12.0522
16.7363
16.7363
12.9644
12.9644
14.4639
14.4639
16.7363
16.7363
17.3581
17.3581
15.0013
15.0013
8.67907
8.67907
15.5587
15.5587
13.4461
13.4461
11.2042
11.2042
9.33599
9.33599
14.4639
14.4639
15.5587
15.5587
48.2088
48.2088
44.8166
44.8166
62.2346
62.2346
66.9452
66.9452
60.0051
60.0051
53.7845
53.7845
57.8555
57.8555
62.2346
62.2346
60.0051
60.0051
44.8166
44.8166
25
25
34.7163
34.7163
32.2735
32.2735
34.7163
34.7163
31.1173
31.1173
25
25
28.9278
28.9278
28.9278
28.9278
27.8914
27.8914
25.9289
25.9289
22.4083
22.4083
25
25
23.2409
23.2409
20.0853
20.0853
20.8316
20.8316
22.4083
22.4083
18.672
18.672
20.8316
20.8316
14.4639
14.4639
20.0853
20.0853
18.672
18.672
20.8316
20.8316
12.0522
12.0522
15.0013
15.0013
17.3581
17.3581
11.6204
11.6204
17.3581
17.3581
18.672
18.672
10.4158
10.4158
10.0426
10.0426
18.0031
18.0031
15.5587
15.5587
15.0013
15.0013
13.9457
13.9457
13.4461
13.4461
12.9644
12.9644
13.4461
13.4461
12.9644
12.9644
14.4639
14.4639
11.6204
11.6204
15.0013
15.0013
12.5
12.5
12.0522
12.0522
74.6879
74.6879
37.344
37.344
37.344
37.344
40.1706
40.1706
40.1706
40.1706
38.7315
38.7315
30.0026
30.0026
36.0062
36.0062
33.4726
33.4726
36.0062
36.0062
32.2735
32.2735
28.9278
28.9278
28.9278
28.9278
27.8914
27.8914
19.3657
19.3657
20.8316
20.8316
9.68287
9.68287
22.4083
22.4083
15.5587
15.5587
24.1044
24.1044
57.8555
57.8555
51.8578
51.8578
46.4818
46.4818
40.1706
40.1706
32.2735
32.2735
28.9278
28.9278
21.6055
21.6055
19.3657
19.3657
25.9289
25.9289
16.7363
16.7363
19.3657
19.3657
15.5587
15.5587
18.0031
18.0031
77.463
77.463
33.4726
33.4726
12.9644
12.9644
21.6055
21.6055
14.4639
14.4639
92.9635
92.9635
25
25
15.5587
15.5587
10.4158
10.4158
41.6631
41.6631
25.9289
25.9289
22.4083
22.4083
19.3657
19.3657
14.4639
14.4639
9.00154
9.00154
9.33599
9.33599
72.0123
72.0123
31.1173
31.1173
13.4461
13.4461
16.1367
16.1367
51.8578
51.8578
24.1044
24.1044
9.68287
9.68287
66.9452
66.9452
16.1367
16.1367
15.0013
15.0013
36.0062
36.0062
16.1367
16.1367
36.0062
36.0062
12.0522
12.0522
38.7315
38.7315
13.4461
13.4461
36.0062
36.0062
12.0522
12.0522
27.8914
27.8914
10.4158
10.4158
25.9289
25.9289
53.7845
53.7845
24.1044
24.1044
51.8578
51.8578
18.672
18.672
12.5
12.5
32.2735
32.2735
24.1044
24.1044
25
25
43.2111
43.2111
48.2088
48.2088
13.9457
13.9457
9.00154
9.00154
11.2042
11.2042
13.9457
13.9457
15.5587
15.5587
96.4176
96.4176
57.8555
57.8555
7.00259e-312
7.00259e-312
7.00259e-312
7.00259e-312
7.00259e-312
7.00259e-312
7.00259e-312
7.00259e-312
7.00259e-312
7.00259e-312
7.00259e-312
7.00259e-312
7.00259e-312
7.00259e-312
7.00259e-312
7.00259e-312
7.00259e-312
7.00259e-312
7.00259e-312
7.00259e-312
7.00259e-312
7.00259e-312
7.00259e-312
7.00259e-312
7.00259e-312
7.00259e-312
7.00259e-312
7.00259e-312
7.00259e-312
7.00259e-312
7.00259e-312
7.00259e-312
7.00259e-312
7.00259e-312
7.00259e-312
7.00259e-312
7.00259e-312
7.00259e-312
7.00259e-312
7.00259e-312
7.00259e-312
7.00259e-312
7.00259e-312
7.00259e-312
7.00259e-312
7.00259e-312
7.00259e-312
7.00259e-312
7.00259e-312
7.00259e-312
7.00259e-312
7.00259e-312
7.00259e-312
7.00259e-312
7.00259e-312
7.00259e-312
7.00259e-312
7.00259e-312
7.00259e-312
7.00259e-312
7.00259e-312
7.00259e-312
7.00259e-312
7.00259e-312
7.00259e-312
7.00259e-312
7.00259e-312
7.00259e-312
7.00259e-312
7.00259e-312
7.00259e-312
7.00259e-312
7.00259e-312
7.00259e-312
7.00259e-312
7.00259e-312
7.00259e-312
7.00259e-312
7.00259e-312
7.00259e-312
7.00259e-312
7.00259e-312
7.00259e-312
7.00259e-312
7.00259e-312
7.00259e-312
7.00259e-312
7.00259e-312
7.00259e-312
7.00259e-312
7.00259e-312
7.00259e-312
7.00259e-312
7.00259e-312
7.00259e-312
7.00259e-312
7.00259e-312
7.00259e-312
7.00259e-312
7.00259e-312
7.00259e-312
7.00259e-312
7.00259e-312
7.00259e-312
7.00259e-312
7.00259e-312
7.00259e-312
7.00259e-312
7.00259e-312
7.00259e-312
7.00259e-312
7.00259e-312
7.00259e-312
7.00259e-312
7.00259e-312
7.00259e-312
7.00259e-312
7.00259e-312
7.00259e-312
7.00259e-312
7.00259e-312
7.00259e-312
7.00259e-312
7.00259e-312
7.00259e-312
7.00259e-312
7.00259e-312
7.00259e-312
7.00259e-312
7.00259e-312
7.00259e-312
7.00259e-312
7.00259e-312
7.00259e-312
7.00259e-312
7.00259e-312
7.00259e-312
7.00259e-312
7.00259e-312
7.00259e-312
7.00259e-312
7.00259e-312
7.00259e-312
7.00259e-312
7.00259e-312
7.00259e-312
7.00259e-312
7.00259e-312
7.00259e-312
7.00259e-312
7.00259e-312
7.00259e-312
7.00259e-312
7.00259e-312
7.00259e-312
7.00259e-312
7.00259e-312
7.00259e-312
7.00259e-312
7.00259e-312
7.00259e-312
7.00259e-312
7.00259e-312
7.00259e-312
7.00259e-312
7.00259e-312
7.00259e-312
7.00259e-312
7.00259e-312
7.00259e-312
7.00259e-312
7.00259e-312
7.00259e-312
7.00259e-312
7.00259e-312
7.00259e-312
7.00259e-312
7.00259e-312
7.00259e-312
7.00259e-312
7.00259e-312
7.00259e-312
7.00259e-312
7.00259e-312
7.00259e-312
7.00259e-312
7.00259e-312
7.00259e-312
7.00259e-312
7.00259e-312
7.00259e-312
7.00259e-312
7.00259e-312
7.00259e-312
7.00259e-312
7.00259e-312
7.00259e-312
7.00259e-312
7.00259e-312
7.00259e-312
7.00259e-312
7.00259e-312
7.00259e-312
7.00259e-312
7.00259e-312
7.00259e-312
7.00259e-312
7.00259e-312
7.00259e-312
7.00259e-312
7.00259e-312
7.00259e-312
7.00259e-312
7.00259e-312
7.00259e-312
7.00259e-312
7.00259e-312
7.00259e-312
7.00259e-312
7.00259e-312
7.00259e-312
7.00259e-312
7.00259e-312
7.00259e-312
7.00259e-312
7.00259e-312
7.00259e-312
7.00259e-312
7.00259e-312
7.00259e-312
7.00259e-312
7.00259e-312
7.00259e-312
7.00259e-312
7.00259e-312
7.00259e-312
7.00259e-312
7.00259e-312
7.00259e-312
7.00259e-312
7.00259e-312
7.00259e-312
7.00259e-312
7.00259e-312
7.00259e-312
7.00259e-312
7.00259e-312
7.00259e-312
7.00259e-312
7.00259e-312
7.00259e-312
7.00259e-312
7.00259e-312
7.00259e-312
7.00259e-312
7.00259e-312
7.00259e-312
7.00259e-312
7.00259e-312
7.00259e-312
7.00259e-312
7.00259e-312
7.00259e-312
7.00259e-312
7.00259e-312
7.00259e-312
7.00259e-312
7.00259e-312
7.00259e-312
7.00259e-312
7.00259e-312
7.00259e-312
7.00259e-312
7.00259e-312
7.00259e-312
7.00259e-312
7.00259e-312
7.00259e-312
7.00259e-312
7.00259e-312
7.00259e-312
7.00259e-312
7.00259e-312
7.00259e-312
7.00259e-312
7.00259e-312
7.00259e-312
7.00259e-312
7.00259e-312
7.00259e-312
7.00259e-312
7.00259e-312
7.00259e-312
7.00259e-312
7.00259e-312
7.00259e-312
7.00259e-312
7.00259e-312
7.00259e-312
7.00259e-312
7.00259e-312
7.00259e-312
7.00259e-312
7.00259e-312
7.00259e-312
7.00259e-312
7.00259e-312
7.00259e-312
7.00259e-312
7.00259e-312
7.00259e-312
7.00259e-312
7.00259e-312
7.00259e-312
7.00259e-312
7.00259e-312
7.00259e-312
7.00259e-312
7.00259e-312
7.00259e-312
7.00259e-312
7.00259e-312
7.00259e-312
7.00259e-312
7.00259e-312
7.00259e-312
7.00259e-312
7.00259e-312
7.00259e-312
7.00259e-312
7.00259e-312
7.00259e-312
7.00259e-312
7.00259e-312
7.00259e-312
7.00259e-312
7.00259e-312
7.00259e-312
7.00259e-312
7.00259e-312
7.00259e-312
7.00259e-312
7.00259e-312
7.00259e-312
7.00259e-312
7.00259e-312
7.00259e-312
7.00259e-312
7.00259e-312
7.00259e-312
7.00259e-312
7.00259e-312
7.00259e-312
7.00259e-312
7.00259e-312
7.00259e-312
7.00259e-312
7.00259e-312
7.00259e-312
7.00259e-312
7.00259e-312
7.00259e-312
7.00259e-312
7.00259e-312
7.00259e-312
7.00259e-312
7.00259e-312
7.00259e-312
7.00259e-312
7.00259e-312
7.00259e-312
7.00259e-312
7.00259e-312
7.00259e-312
7.00259e-312
7.00259e-312
7.00259e-312
7.00259e-312
7.00259e-312
7.00259e-312
7.00259e-312
7.00259e-312
7.00259e-312
7.00259e-312
7.00259e-312
7.00259e-312
7.00259e-312
7.00259e-312
7.00259e-312
7.00259e-312
7.00259e-312
7.00259e-312
7.00259e-312
7.00259e-312
7.00259e-312
7.00259e-312
7.00259e-312
7.00259e-312
7.00259e-312
7.00259e-312
7.00259e-312
7.00259e-312
7.00259e-312
7.00259e-312
7.00259e-312
7.00259e-312
7.00259e-312
7.00259e-312
7.00259e-312
7.00259e-312
7.00259e-312
7.00259e-312
7.00259e-312
7.00259e-312
7.00259e-312
7.00259e-312
7.00259e-312
7.00259e-312
7.00259e-312
7.00259e-312
7.00259e-312
7.00259e-312
7.00259e-312
7.00259e-312
7.00259e-312
7.00259e-312
7.00259e-312
7.00259e-312
7.00259e-312
