# vtk DataFile Version 3.0
vtk output
ASCII

DATASET POLYDATA
POINTS  4376  float
39.0000000  60.0000000  13.5000000
39.2500000  60.0000000  13.7500000
38.7500000  59.5000000  14.0000000
39.0000000  59.7500000  14.0000000
39.2500000  59.7500000  14.0000000
39.5000000  59.5000000  14.2500000
40.0000000  59.5000000  14.2500000
40.2500000  59.5000000  14.2500000
40.5000000  59.5000000  14.2500000
37.2500000  59.2500000  14.5000000
39.7500000  59.2500000  14.5000000
37.5000000  59.0000000  14.7500000
37.7500000  58.7500000  14.7500000
38.7500000  59.0000000  14.7500000
39.2500000  59.0000000  14.7500000
39.5000000  59.0000000  14.7500000
38.0000000  58.5000000  15.0000000
39.0000000  58.7500000  15.0000000
38.2500000  58.2500000  15.2500000
38.5000000  58.5000000  15.2500000
38.7500000  58.5000000  15.2500000
39.0000000  58.5000000  15.2500000
37.2500000  57.7500000  15.5000000
37.5000000  57.7500000  15.5000000
38.0000000  58.0000000  15.5000000
39.2500000  58.2500000  15.5000000
36.7500000  57.7500000  15.7500000
37.0000000  57.7500000  15.7500000
37.7500000  58.0000000  15.7500000
39.5000000  58.0000000  15.7500000
36.7500000  57.7500000  16.0000000
39.2500000  58.0000000  16.0000000
36.7500000  57.7500000  16.2500000
39.2500000  58.0000000  16.2500000
35.7500000  57.5000000  16.5000000
36.0000000  57.5000000  16.5000000
36.2500000  57.5000000  16.5000000
36.5000000  57.5000000  16.5000000
39.2500000  58.0000000  16.5000000
35.7500000  57.5000000  16.7500000
39.2500000  58.0000000  16.7500000
39.5000000  58.0000000  16.7500000
35.5000000  57.2500000  17.0000000
39.0000000  58.0000000  17.0000000
39.7500000  58.0000000  17.0000000
51.0000000  35.7500000  17.0000000
35.5000000  57.2500000  17.2500000
38.7500000  58.0000000  17.2500000
40.0000000  58.0000000  17.2500000
51.0000000  35.7500000  17.2500000
35.5000000  57.0000000  17.5000000
38.7500000  58.2500000  17.5000000
40.2500000  58.0000000  17.5000000
50.2500000  36.0000000  17.5000000
50.5000000  36.0000000  17.5000000
50.7500000  35.7500000  17.5000000
35.5000000  57.0000000  17.7500000
38.7500000  58.2500000  17.7500000
40.2500000  58.0000000  17.7500000
50.0000000  36.0000000  17.7500000
34.7500000  57.0000000  18.0000000
35.0000000  57.0000000  18.0000000
35.2500000  57.0000000  18.0000000
38.5000000  58.0000000  18.0000000
40.2500000  58.0000000  18.0000000
49.7500000  35.7500000  18.0000000
34.5000000  56.7500000  18.2500000
38.2500000  58.0000000  18.2500000
40.2500000  58.0000000  18.2500000
49.5000000  35.7500000  18.2500000
33.7500000  56.5000000  18.5000000
34.2500000  56.5000000  18.5000000
38.0000000  58.0000000  18.5000000
40.2500000  58.0000000  18.5000000
49.2500000  36.0000000  18.5000000
34.0000000  56.5000000  18.7500000
37.7500000  57.7500000  18.7500000
40.5000000  58.0000000  18.7500000
49.2500000  36.0000000  18.7500000
33.7500000  56.2500000  19.0000000
38.0000000  57.7500000  19.0000000
40.5000000  58.0000000  19.0000000
47.5000000  42.5000000  19.0000000
47.7500000  42.5000000  19.0000000
49.2500000  36.0000000  19.0000000
27.0000000  33.2500000  19.2500000
27.2500000  33.2500000  19.2500000
27.5000000  33.2500000  19.2500000
27.7500000  33.2500000  19.2500000
32.2500000  55.7500000  19.2500000
32.5000000  55.7500000  19.2500000
33.2500000  56.0000000  19.2500000
33.5000000  56.0000000  19.2500000
38.0000000  57.7500000  19.2500000
40.5000000  57.7500000  19.2500000
48.0000000  42.7500000  19.2500000
49.2500000  36.0000000  19.2500000
25.2500000  39.0000000  19.5000000
26.7500000  33.7500000  19.5000000
27.0000000  33.5000000  19.5000000
32.7500000  55.5000000  19.5000000
33.2500000  55.7500000  19.5000000
33.7500000  56.0000000  19.5000000
37.7500000  57.5000000  19.5000000
40.5000000  57.7500000  19.5000000
48.0000000  42.7500000  19.5000000
49.5000000  35.7500000  19.5000000
25.5000000  38.7500000  19.7500000
25.7500000  39.0000000  19.7500000
25.7500000  39.2500000  19.7500000
26.2500000  34.2500000  19.7500000
26.7500000  34.0000000  19.7500000
32.7500000  55.5000000  19.7500000
33.0000000  55.5000000  19.7500000
37.2500000  57.5000000  19.7500000
37.5000000  57.5000000  19.7500000
38.0000000  57.5000000  19.7500000
40.7500000  57.5000000  19.7500000
48.0000000  43.0000000  19.7500000
48.0000000  43.2500000  19.7500000
48.0000000  43.5000000  19.7500000
49.5000000  35.0000000  19.7500000
49.5000000  35.2500000  19.7500000
49.5000000  35.5000000  19.7500000
25.5000000  38.7500000  20.0000000
26.5000000  34.2500000  20.0000000
31.2500000  54.7500000  20.0000000
32.5000000  55.2500000  20.0000000
33.2500000  55.5000000  20.0000000
33.5000000  55.5000000  20.0000000
36.7500000  57.0000000  20.0000000
37.0000000  57.2500000  20.0000000
38.2500000  57.5000000  20.0000000
38.5000000  57.5000000  20.0000000
40.7500000  57.5000000  20.0000000
48.2500000  43.7500000  20.0000000
48.2500000  44.0000000  20.0000000
49.5000000  35.7500000  20.0000000
25.5000000  38.0000000  20.2500000
25.5000000  38.2500000  20.2500000
25.5000000  38.5000000  20.2500000
25.7500000  37.7500000  20.2500000
26.5000000  34.5000000  20.2500000
26.5000000  34.7500000  20.2500000
31.5000000  54.5000000  20.2500000
32.2500000  55.0000000  20.2500000
36.2500000  57.0000000  20.2500000
36.5000000  57.0000000  20.2500000
37.7500000  56.7500000  20.2500000
38.0000000  57.0000000  20.2500000
38.0000000  57.2500000  20.2500000
38.7500000  57.5000000  20.2500000
41.0000000  57.5000000  20.2500000
48.0000000  44.2500000  20.2500000
48.0000000  44.5000000  20.2500000
49.5000000  36.0000000  20.2500000
26.0000000  37.0000000  20.5000000
26.0000000  37.2500000  20.5000000
26.0000000  37.5000000  20.5000000
26.5000000  35.0000000  20.5000000
28.5000000  28.7500000  20.5000000
28.5000000  29.0000000  20.5000000
31.7500000  54.5000000  20.5000000
32.0000000  54.7500000  20.5000000
36.2500000  57.0000000  20.5000000
38.7500000  57.5000000  20.5000000
41.2500000  57.5000000  20.5000000
41.7500000  57.0000000  20.5000000
48.2500000  44.7500000  20.5000000
49.5000000  36.2500000  20.5000000
26.0000000  36.2500000  20.7500000
26.0000000  36.5000000  20.7500000
26.0000000  36.7500000  20.7500000
26.2500000  35.2500000  20.7500000
28.7500000  28.5000000  20.7500000
29.0000000  28.2500000  20.7500000
31.7500000  54.5000000  20.7500000
35.2500000  56.5000000  20.7500000
35.7500000  56.5000000  20.7500000
36.0000000  56.5000000  20.7500000
36.2500000  56.7500000  20.7500000
38.7500000  57.2500000  20.7500000
41.2500000  57.2500000  20.7500000
41.5000000  57.0000000  20.7500000
48.2500000  45.0000000  20.7500000
49.5000000  36.5000000  20.7500000
26.0000000  35.5000000  21.0000000
26.0000000  36.0000000  21.0000000
29.0000000  28.0000000  21.0000000
29.7500000  53.5000000  21.0000000
31.5000000  54.2500000  21.0000000
34.5000000  56.0000000  21.0000000
35.0000000  56.0000000  21.0000000
35.5000000  56.5000000  21.0000000
36.2500000  56.5000000  21.0000000
38.7500000  57.2500000  21.0000000
41.5000000  57.0000000  21.0000000
47.2500000  45.2500000  21.0000000
48.0000000  45.2500000  21.0000000
49.5000000  36.7500000  21.0000000
26.0000000  35.7500000  21.2500000
29.0000000  27.7500000  21.2500000
29.2500000  27.5000000  21.2500000
29.5000000  27.2500000  21.2500000
30.0000000  53.2500000  21.2500000
31.5000000  54.0000000  21.2500000
34.7500000  56.0000000  21.2500000
35.2500000  56.2500000  21.2500000
36.5000000  56.5000000  21.2500000
38.7500000  57.0000000  21.2500000
41.5000000  56.7500000  21.2500000
47.5000000  45.2500000  21.2500000
47.7500000  45.2500000  21.2500000
48.0000000  45.2500000  21.2500000
49.7500000  36.7500000  21.2500000
26.0000000  35.7500000  21.5000000
29.2500000  52.5000000  21.5000000
29.5000000  27.0000000  21.5000000
30.2500000  53.0000000  21.5000000
31.2500000  54.0000000  21.5000000
34.5000000  55.7500000  21.5000000
36.7500000  56.5000000  21.5000000
38.7500000  57.0000000  21.5000000
41.2500000  57.0000000  21.5000000
41.7500000  56.5000000  21.5000000
48.2500000  45.2500000  21.5000000
49.7500000  36.7500000  21.5000000
25.7500000  35.7500000  21.7500000
26.7500000  33.0000000  21.7500000
29.5000000  52.5000000  21.7500000
29.7500000  27.0000000  21.7500000
30.0000000  52.7500000  21.7500000
30.5000000  53.2500000  21.7500000
30.7500000  53.5000000  21.7500000
31.0000000  53.7500000  21.7500000
34.2500000  55.5000000  21.7500000
36.7500000  56.5000000  21.7500000
38.7500000  57.0000000  21.7500000
40.5000000  56.2500000  21.7500000
40.7500000  56.2500000  21.7500000
41.0000000  56.5000000  21.7500000
41.2500000  56.7500000  21.7500000
42.0000000  56.5000000  21.7500000
42.2500000  56.5000000  21.7500000
48.2500000  45.5000000  21.7500000
49.7500000  37.0000000  21.7500000
25.7500000  36.0000000  22.0000000
26.5000000  33.2500000  22.0000000
26.5000000  33.5000000  22.0000000
26.5000000  33.7500000  22.0000000
27.0000000  32.2500000  22.0000000
27.0000000  32.5000000  22.0000000
27.0000000  32.7500000  22.0000000
28.2500000  52.0000000  22.0000000
29.0000000  52.0000000  22.0000000
29.2500000  52.2500000  22.0000000
29.7500000  27.0000000  22.0000000
29.7500000  52.5000000  22.0000000
30.2500000  53.0000000  22.0000000
34.0000000  55.2500000  22.0000000
36.5000000  56.2500000  22.0000000
38.7500000  56.7500000  22.0000000
42.5000000  56.2500000  22.0000000
48.5000000  45.2500000  22.0000000
49.7500000  37.2500000  22.0000000
49.7500000  37.5000000  22.0000000
25.5000000  36.2500000  22.2500000
25.7500000  34.2500000  22.2500000
26.0000000  34.2500000  22.2500000
26.2500000  34.0000000  22.2500000
27.0000000  31.7500000  22.2500000
27.0000000  32.0000000  22.2500000
27.2500000  31.5000000  22.2500000
27.5000000  30.7500000  22.2500000
27.5000000  31.0000000  22.2500000
27.5000000  31.2500000  22.2500000
27.7500000  30.5000000  22.2500000
27.7500000  51.2500000  22.2500000
28.0000000  29.7500000  22.2500000
28.0000000  30.0000000  22.2500000
28.0000000  30.2500000  22.2500000
28.2500000  29.5000000  22.2500000
28.5000000  51.7500000  22.2500000
[...]
POINT_DATA 4376
SCALARS TempoDijkstra float
LOOKUP_TABLE default
0.000000
0.103986
0.385488
0.281502
0.207973
0.335329
0.590043
0.663572
0.737101
1.632016
0.462686
1.504660
1.400673
0.918285
0.663572
0.590043
1.273317
0.790929
1.145960
1.041974
0.968444
0.894915
1.578189
1.504660
1.273317
1.022272
1.755705
1.682175
1.377303
1.149628
1.829234
1.253615
1.902763
1.327144
2.250709
2.177179
2.103650
2.030120
1.400673
2.324238
1.474203
1.504660
2.451595
1.578189
1.608646
13.292694
2.525124
1.682175
1.712632
13.219165
2.629111
1.786161
1.816618
12.950762
13.024291
13.115178
2.702640
1.859691
1.890148
12.846775
2.953685
2.880156
2.806626
1.987047
1.963677
12.719419
3.081042
2.091034
2.037206
12.615432
3.416371
3.208399
2.195020
2.110736
12.488075
3.312385
2.322377
2.214722
12.414546
3.439742
2.359437
2.288252
9.692670
9.619141
12.341017
13.785454
13.808824
13.882353
13.955882
4.219916
4.146387
3.640628
3.567099
2.432966
2.392238
9.491784
12.267488
13.964741
13.577480
13.681467
4.019030
3.744614
3.909031
2.560323
2.465767
9.418255
12.140131
13.837384
13.891212
13.964741
13.450124
13.473494
3.945501
3.871971
2.737839
2.664309
2.597383
2.572347
9.314268
9.240739
9.167210
12.183203
12.109674
12.036144
13.763855
13.346137
4.662899
4.072857
3.975957
4.049487
2.969182
2.865196
2.701369
2.774899
2.645877
9.060629
8.987100
11.932158
13.512810
13.586339
13.659868
13.408823
13.242150
13.168621
4.535543
4.200214
3.118834
3.045305
2.939316
2.835329
2.761800
2.878885
2.736764
8.922872
8.849342
11.828171
13.164953
13.238482
13.312012
13.064634
16.886686
16.960217
4.431557
4.327570
3.149291
2.952415
2.840750
3.152709
8.721986
11.724184
12.913908
12.987437
13.060966
12.937278
16.759329
16.655342
4.505086
3.549989
3.402930
3.329401
3.253278
3.056401
2.944737
3.048723
8.617999
11.620197
12.809921
12.809921
16.551355
5.557814
4.632442
3.902676
3.730098
3.506917
3.357264
3.129930
3.072093
8.668159
8.490643
11.516211
12.705935
16.447369
16.343382
16.239395
5.430457
4.736429
3.798690
3.634273
3.461250
3.233917
3.176080
8.564172
8.490643
8.417113
11.412224
12.632405
5.765786
16.135408
5.303101
4.840415
3.926047
3.565236
3.307446
3.303437
3.303437
8.313127
11.338695
12.528419
13.556705
5.661800
16.031422
5.430457
5.175744
5.071758
4.967772
4.053403
3.638766
3.380975
3.688925
3.615395
3.511409
3.407423
3.407423
3.480952
8.209140
11.234708
12.424432
13.429348
13.355819
13.282290
13.831120
13.757590
13.684061
6.154459
5.826217
5.722230
15.957891
5.557814
340282346638528859811704183484516925440.000000
4.180760
3.693770
3.484962
3.587532
8.224833
11.130721
11.090242
12.297075
13.332449
13.258920
13.154933
14.008636
13.935106
14.112622
14.363667
14.290138
14.216609
14.467654
6.764204
14.718699
14.645170
14.571641
14.822686
6.027102
5.953573
15.884362
340282346638528859811704183484516925440.000000
4.418706
4.345177
4.284746
3.797757
3.612319
3.691519
8.044724
8.798109
8.120847
8.694122
8.224833
8.402349
8.328820
10.986256
11.018479
11.122466
11.721456
12.223546
11.825442
13.182796
6.636847
15.097101
15.023572
14.950043
15.201088
6.057559
15.810833
340282346638528859811704183484516925440.000000
4.388732
3.901743
3.685848
3.716305
3.795505
3.765048
7.940737
340282346638528859811704183484516925440.000000
8.566766
8.493237
10.910132
10.891123
10.817594
10.744064
10.670535
11.594099
11.520570
11.447041
11.373511
11.299982
11.226453
12.150017
12.076488
12.002958
11.929429
12.974823
13.078810
6.532861
6.131089
15.328444
15.505960
15.432431
15.683476
15.609947
15.938190
340282346638528859811704183484516925440.000000
4.767134
4.462262
3.975272
3.990721
3.886734
3.813205
3.820291
4.077007
4.003478
3.899491
3.892405
7.708217
7.634687
340282346638528859811704183484516925440.000000
8.878241
8.731182
8.657653
8.982227
10.806146
10.282452
10.566548
10.386438
12.254004
12.485347
12.870836
12.589334
6.972176
6.868190
6.764204
6.660217
6.405504
16.065546
340282346638528859811704183484516925440.000000
17.302883
17.406870
4.639777
4.566248
4.176158
4.102629
4.079259
4.152788
4.226317
3.924277
3.996391
7.298181
7.549225
7.475696
7.402167
8.982227
10.464213
10.702159
10.155095
9.756991
9.830521
10.462562
9.904050
12.357990
12.840379
12.766850
12.693320
7.099533
6.278148
340282346638528859811704183484516925440.000000
340282346638528859811704183484516925440.000000
340282346638528859811704183484516925440.000000
16.192904
16.296890
16.400877
17.071539
17.071539
17.175526
17.510857
17.614843
4.639777
4.541461
340282346638528859811704183484516925440.000000
4.467932
4.303515
4.330304
4.028264
4.123748
4.288165
340282346638528859811704183484516925440.000000
340282346638528859811704183484516925440.000000
340282346638528859811704183484516925440.000000
7.207293
7.133764
7.073333
9.086214
10.360227
10.598172
10.524643
10.051108
9.683462
8.044606
12.944366
7.226889
6.351677
340282346638528859811704183484516925440.000000
340282346638528859811704183484516925440.000000
340282346638528859811704183484516925440.000000
340282346638528859811704183484516925440.000000
340282346638528859811704183484516925440.000000
340282346638528859811704183484516925440.000000
340282346638528859811704183484516925440.000000
16.528234
16.632221
16.736208
16.840195
16.944181
17.718830
4.767134
17.822817
340282346638528859811704183484516925440.000000
4.407501
4.332898
4.132250
4.251104
6.969347
9.250630
9.190201
10.269340
10.195810
10.122281
9.947122
9.873592
9.800063
9.726534
9.579475
9.505946
9.432417
9.358888
7.917249
13.048352
7.635747
7.562218
7.458232
7.354246
6.425206
6.086116
4.840663
17.926804
4.511487
4.436884
4.259606
4.745662
4.710122
4.606135
4.324634
4.378461
4.609804
4.683333
4.787319
6.895818
9.377987
10.031394
9.957865
9.897435
10.051108
9.254901
9.181372
7.843720
13.152339
7.739734
340282346638528859811704183484516925440.000000
6.498735
5.958759
4.914192
4.615474
4.540870
4.363593
4.618306
4.502149
4.428620
4.505817
4.914676
5.018662
5.122648
6.389469
6.627415
6.791831
9.481974
9.793448
9.719919
9.646390
10.124638
9.077385
8.179049
8.075063
7.971076
13.279696
13.457211
13.383682
340282346638528859811704183484516925440.000000
13.762084
7.637608
6.626092
5.831403
5.219064
5.145535
5.041549
5.018178
5.091708
4.742830
4.614399
4.886709
4.782722
4.490949
4.525520
5.250005
5.343236
6.285482
6.500058
7.042877
6.895818
8.241590
7.146863
8.137603
8.033616
9.609330
10.198167
8.950028
8.283036
13.634727
13.561198
13.866071
7.772051
7.668065
7.510251
6.753448
5.727417
5.325644
5.195694
4.870187
4.669405
4.618306
4.629506
5.470593
6.158126
6.409171
6.335641
6.262112
7.421278
7.347749
7.274220
7.652621
7.944394
9.736687
10.302154
9.054015
8.846042
8.742055
8.668526
8.594996
8.491010
8.387023
13.993427
7.540708
7.436722
6.826978
5.600060
5.453001
5.299680
4.773391
4.953635
4.849648
4.745662
340282346638528859811704183484516925440.000000
340282346638528859811704183484516925440.000000
5.597950
5.762366
5.701936
5.926783
6.030769
6.482700
7.548635
8.195439
8.121910
8.048381
7.853507
7.779977
8.299426
8.918118
8.844588
8.771059
8.697530
8.624001
8.550471
8.403413
9.810216
10.406140
9.158002
14.097414
7.309365
6.930964
5.556987
5.403666
4.877377
4.849648
340282346638528859811704183484516925440.000000
340282346638528859811704183484516925440.000000
6.586686
8.507400
9.045474
9.914203
10.018189
10.510127
11.161190
11.265177
11.338706
11.412235
11.485765
9.261989
14.201401
14.452446
14.378917
14.305387
14.556433
7.235836
7.004493
5.848761
5.684344
5.507653
4.950906
4.977005
5.081348
340282346638528859811704183484516925440.000000
4.977362
4.873375
340282346638528859811704183484516925440.000000
6.647117
8.580929
9.119003
10.122176
10.226163
10.614114
11.033834
9.335518
14.733949
14.660419
7.131850
340282346638528859811704183484516925440.000000
5.811700
5.611639
5.024436
5.050534
340282346638528859811704183484516925440.000000
5.000732
19.794912
19.898899
19.972429
340282346638528859811704183484516925440.000000
6.720646
9.192533
8.708285
10.403679
10.330150
10.687643
10.856318
10.929847
9.439505
7.423623
7.259206
340282346638528859811704183484516925440.000000
6.488962
340282346638528859811704183484516925440.000000
5.685168
5.128422
5.154521
5.154521
340282346638528859811704183484516925440.000000
5.128088
19.690926
340282346638528859811704183484516925440.000000
6.811533
9.167304
9.063317
9.296519
8.959331
8.885801
8.812272
10.581195
10.507666
10.979299
10.905769
10.832240
10.758711
10.685182
11.511847
11.303873
11.230344
11.156815
11.083285
11.407860
10.791630
10.752331
9.482576
7.386563
340282346638528859811704183484516925440.000000
7.075336
6.384975
6.280989
5.976117
5.758698
5.232408
5.699682
5.626153
5.552624
5.479095
5.405565
5.332036
5.258507
5.281877
340282346638528859811704183484516925440.000000
5.232075
19.563568
340282346638528859811704183484516925440.000000
6.885063
9.063317
11.691957
10.895617
10.709259
9.556106
7.513919
6.971349
6.867363
6.763377
6.659390
6.585861
6.512332
6.177003
6.103474
5.862684
5.305937
5.879792
5.806262
5.385863
5.305604
19.459581
340282346638528859811704183484516925440.000000
6.958592
9.136847
11.073133
10.999603
10.605272
9.629635
7.641276
6.867363
6.207460
5.905756
5.379467
6.057307
5.983778
5.459393
5.868251
5.941780
5.379133
19.353003
340282346638528859811704183484516925440.000000
340282346638528859811704183484516925440.000000
340282346638528859811704183484516925440.000000
340282346638528859811704183484516925440.000000
340282346638528859811704183484516925440.000000
18.864016
9.210376
10.336869
11.177119
10.501286
10.045096
9.971567
11.763494
9.807151
9.703164
7.745262
6.940892
17.358498
6.311446
6.033113
5.452996
6.111135
5.623809
5.727796
5.586749
5.690735
5.764265
6.069137
6.173123
5.506490
19.279472
7.105651
18.736658
340282346638528859811704183484516925440.000000
340282346638528859811704183484516925440.000000
9.314363
11.636138
11.562609
11.281106
340282346638528859811704183484516925440.000000
10.356571
10.209513
10.149083
9.934507
11.927911
11.890851
340282346638528859811704183484516925440.000000
8.184578
8.080591
7.872619
7.044878
17.231140
6.384975
7.751864
6.160470
5.526525
340282346638528859811704183484516925440.000000
340282346638528859811704183484516925440.000000
340282346638528859811704183484516925440.000000
5.727796
5.633846
19.175486
7.233007
18.663128
340282346638528859811704183484516925440.000000
9.558232
340282346638528859811704183484516925440.000000
11.458622
11.385093
10.430100
12.105427
12.031898
340282346638528859811704183484516925440.000000
9.145688
9.072159
8.968172
8.864185
8.760199
8.656212
8.582683
8.509153
8.405167
8.311934
7.999975
7.892321
7.118408
17.157610
6.512332
7.587447
7.660976
6.197530
5.630511
340282346638528859811704183484516925440.000000
340282346638528859811704183484516925440.000000
6.052370
5.978840
5.905311
5.831782
5.737833
19.099363
18.894472
18.820942
18.589598
7.360364
340282346638528859811704183484516925440.000000
340282346638528859811704183484516925440.000000
340282346638528859811704183484516925440.000000
9.738342
340282346638528859811704183484516925440.000000
340282346638528859811704183484516925440.000000
10.536681
340282346638528859811704183484516925440.000000
12.359066
340282346638528859811704183484516925440.000000
7.965850
7.191937
17.084080
6.585861
7.460091
6.271059
5.831397
5.757868
340282346638528859811704183484516925440.000000
6.069728
5.865189
18.995377
18.693584
7.464350
8.315119
340282346638528859811704183484516925440.000000
9.546883
9.842329
340282346638528859811704183484516925440.000000
10.664038
340282346638528859811704183484516925440.000000
12.359066
12.285537
340282346638528859811704183484516925440.000000
8.039380
8.143367
8.247354
8.320883
8.394412
7.319293
16.956722
6.659390
7.386561
6.375045
6.112899
6.008913
5.935383
340282346638528859811704183484516925440.000000
6.249837
6.197084
5.992546
6.066075
18.891390
18.417507
7.591707
7.899173
8.223747
8.150218
8.076689
8.003160
8.516005
8.442475
340282346638528859811704183484516925440.000000
340282346638528859811704183484516925440.000000
9.620412
10.153804
10.006745
10.737567
340282346638528859811704183484516925440.000000
340282346638528859811704183484516925440.000000
340282346638528859811704183484516925440.000000
340282346638528859811704183484516925440.000000
12.536582
12.463053
8.166737
8.498399
16.829365
7.446650
7.751522
6.763377
7.259205
6.930963
6.502402
6.039370
6.353824
10.751694
6.193431
6.297418
18.787403
18.357077
7.792593
7.719063
8.619991
9.693941
10.257791
10.281160
10.841554
340282346638528859811704183484516925440.000000
340282346638528859811704183484516925440.000000
340282346638528859811704183484516925440.000000
340282346638528859811704183484516925440.000000
340282346638528859811704183484516925440.000000
340282346638528859811704183484516925440.000000
340282346638528859811704183484516925440.000000
340282346638528859811704183484516925440.000000
340282346638528859811704183484516925440.000000
340282346638528859811704183484516925440.000000
340282346638528859811704183484516925440.000000
340282346638528859811704183484516925440.000000
340282346638528859811704183484516925440.000000
340282346638528859811704183484516925440.000000
12.663939
8.240266
8.541471
16.702007
7.550636
7.624166
6.867363
6.971349
7.363191
7.155219
7.081689
6.826976
6.679917
6.606388
6.143356
340282346638528859811704183484516925440.000000
10.624337
6.424774
18.680824
18.253090
9.797928
10.458676
10.385147
10.636192
10.562663
10.740179
10.945540
340282346638528859811704183484516925440.000000
340282346638528859811704183484516925440.000000
340282346638528859811704183484516925440.000000
11.303166
12.895282
12.791295
8.344253
8.615001
16.628477
7.624166
7.047472
7.467177
6.954333
6.770805
6.247342
340282346638528859811704183484516925440.000000
340282346638528859811704183484516925440.000000
10.571584
6.448145
18.607294
18.149103
9.871457
11.123056
11.049527
340282346638528859811704183484516925440.000000
340282346638528859811704183484516925440.000000
13.096168
13.022638
8.961085
8.887556
8.448239
8.742357
16.554947
7.697695
8.204869
6.844334
6.351328
340282346638528859811704183484516925440.000000
10.374011
10.477998
10.444227
18.788479
18.684492
18.607294
18.503307
6.575501
6.679488
18.021746
17.948215
11.246128
11.172599
10.881900
11.099070
10.777913
9.944986
11.300572
11.227043
340282346638528859811704183484516925440.000000
13.200154
8.783569
8.575596
8.815886
16.427589
7.771224
8.131340
6.935222
7.008751
6.455315
340282346638528859811704183484516925440.000000
340282346638528859811704183484516925440.000000
340282346638528859811704183484516925440.000000
10.340240
18.557135
18.734652
18.399321
6.806844
17.844229
10.995083
10.650557
10.048973
10.122502
10.196032
11.427929
340282346638528859811704183484516925440.000000
13.327511
13.431498
8.679583
8.889416
15.964902
15.860915
16.300232
7.844753
8.057811
7.062578
340282346638528859811704183484516925440.000000
6.559301
6.632830
10.236254
18.453148
18.325790
6.910830
17.770699
11.337015
11.263486
11.279180
11.099070
11.172599
340282346638528859811704183484516925440.000000
10.814973
10.302612
10.376142
10.449671
10.523200
10.300018
10.226489
10.152960
11.501458
340282346638528859811704183484516925440.000000
340282346638528859811704183484516925440.000000
340282346638528859811704183484516925440.000000
9.296415
13.535484
8.857099
8.753112
14.315290
14.241761
14.189008
14.419277
14.523264
14.627251
15.444969
8.993402
15.756928
15.860915
15.964902
16.068888
16.172874
7.918283
7.953824
7.849838
7.189935
340282346638528859811704183484516925440.000000
6.706359
10.108897
18.379618
18.252260
7.038187
17.666712
11.441002
10.226489
10.427375
340282346638528859811704183484516925440.000000
340282346638528859811704183484516925440.000000
340282346638528859811704183484516925440.000000
11.628815
9.169059
13.639471
9.065072
8.961085
13.957664
13.884135
13.810606
14.061651
8.880468
14.901666
14.828136
14.754607
15.005652
15.109639
15.213626
15.317613
9.053832
15.525585
9.120759
15.629572
7.991812
8.185167
8.081181
7.722481
7.367450
7.293921
340282346638528859811704183484516925440.000000
6.779889
340282346638528859811704183484516925440.000000
340282346638528859811704183484516925440.000000
340282346638528859811704183484516925440.000000
340282346638528859811704183484516925440.000000
18.275631
18.178730
7.165544
17.593182
11.471458
10.300018
10.531362
11.438408
11.364879
11.291349
11.217820
11.144291
10.635348
340282346638528859811704183484516925440.000000
11.702344
9.936618
9.400402
9.296415
13.766828
8.984455
9.157819
9.248116
8.098392
8.459582
8.312524
7.618495
7.544966
7.471437
340282346638528859811704183484516925440.000000
340282346638528859811704183484516925440.000000
6.853418
340282346638528859811704183484516925440.000000
9.961839
18.148273
18.074743
7.292900
17.540430
11.575445
10.373548
11.689453
11.615924
11.542395
11.040304
10.979875
10.711472
11.829700
340282346638528859811704183484516925440.000000
9.809261
9.527759
13.786530
13.894184
9.088442
9.261806
9.375472
8.416511
7.474030
340282346638528859811704183484516925440.000000
6.926947
9.519340
9.458425
340282346638528859811704183484516925440.000000
340282346638528859811704183484516925440.000000
9.857852
17.970757
17.866770
7.420257
17.413073
11.648974
10.477534
12.044485
11.940498
11.866969
11.793440
10.875888
10.815458
11.957057
340282346638528859811704183484516925440.000000
9.735732
9.631745
13.890516
13.998171
9.161971
9.335335
9.449001
340282346638528859811704183484516925440.000000
7.547560
340282346638528859811704183484516925440.000000
7.000476
9.415353
9.753865
340282346638528859811704183484516925440.000000
17.739412
17.309086
7.547613
10.581521
10.040605
12.030586
9.936618
9.863089
340282346638528859811704183484516925440.000000
13.994503
9.289328
14.102158
14.206144
9.609750
9.462691
340282346638528859811704183484516925440.000000
340282346638528859811704183484516925440.000000
340282346638528859811704183484516925440.000000
9.522531
8.580927
7.621089
340282346638528859811704183484516925440.000000
340282346638528859811704183484516925440.000000
22.784548
7.091364
9.311366
9.680336
340282346638528859811704183484516925440.000000
340282346638528859811704183484516925440.000000
340282346638528859811704183484516925440.000000
17.665882
17.235556
7.748499
7.674970
10.708878
10.144591
12.134573
340282346638528859811704183484516925440.000000
14.037575
9.362857
14.282268
9.590048
340282346638528859811704183484516925440.000000
9.596060
8.684914
7.694618
22.657190
340282346638528859811704183484516925440.000000
7.195350
9.207379
9.552979
340282346638528859811704183484516925440.000000
340282346638528859811704183484516925440.000000
340282346638528859811704183484516925440.000000
17.592352
17.162025
7.875855
10.836234
10.345477
10.271948
12.238560
340282346638528859811704183484516925440.000000
9.490213
14.164931
14.386254
340282346638528859811704183484516925440.000000
9.767564
9.694035
340282346638528859811704183484516925440.000000
9.700047
8.812270
8.849330
7.768147
22.583660
340282346638528859811704183484516925440.000000
340282346638528859811704183484516925440.000000
340282346638528859811704183484516925440.000000
7.238423
9.133850
18.070293
9.448993
340282346638528859811704183484516925440.000000
340282346638528859811704183484516925440.000000
17.488365
17.414835
17.338713
17.058039
7.949385
10.888988
10.553451
10.449464
12.281631
340282346638528859811704183484516925440.000000
9.527273
14.292288
340282346638528859811704183484516925440.000000
14.513611
9.767564
15.829912
9.773576
8.885799
8.953317
9.026846
9.130833
7.895504
22.510130
340282346638528859811704183484516925440.000000
340282346638528859811704183484516925440.000000
7.311952
9.060321
9.375463
17.966307
17.862320
340282346638528859811704183484516925440.000000
17.234726
16.930681
8.022914
10.962517
10.717867
10.680807
12.385618
340282346638528859811704183484516925440.000000
9.758616
9.654630
340282346638528859811704183484516925440.000000
340282346638528859811704183484516925440.000000
14.365817
14.640967
9.871551
15.725925
9.877563
8.959329
9.234819
9.338806
7.948257
7.969033
22.436600
7.415938
7.489468
8.986792
9.301934
17.734962
17.661432