# vtk DataFile Version 3.0
Tree
ASCII
DATASET POLYDATA
POINTS 1582 float
162774 225274 273.8
162774 225274 10273.8
141774 225774 23773.8
133774 213814 30497.8
136174 217402 28480.6
144774 208774 53889.8
139442 214123 38136.2
119774 202010 56773.8
144594 208881 51580.2
153774 199222 67773.8
125924 204687 53870.6
125774 197774 71981.8
125855 201507 62201.8
111530 193774 67773.8
153255 199875 64381.4
167774 185258 74773.8
153618 199418 66756.2
146774 196002 83773.8
113192 194431 65569.4
95773.8 183554 62773.8
112028 193971 67112.6
108774 188002 87773.8
163532 188350 70016.6
173774 170802 66773.8
166501 186185 73346.6
175870 178774 97773.8
146724 197094 82808.2
138774 195998 99773.8
98827.4 183793 64788.2
86773.8 171978 66773.8
170061 183369 82629
179986 165774 83773.8
171305 172736 67089.4
175890 150774 62773.8
110011 190270 79922.6
89573.8 176774 84773.8
109145 188682 85418.6
115774 194002 109774
173781 160876 64759
170006 153774 46773.8
141598 196349 98544.6
139774 195998 114774
174695 178142 93593
182002 162774 105774
143956 196691 91305.8
155774 193982 103774
89017 173179 66797.8
79549.8 157774 70773.8
174920 155421 63687
181982 144774 77773.8
175599 152168 63047.8
179774 131998 63773.8
93307.8 179133 86301.4
79553.8 169774 95773.8
103648 186656 84283.8
96773.8 185934 98773.8
113623 193781 108363
113774 197774 125610
138866 196100 111792
129774 196054 124774
139501 196029 113879
144774 195998 128774
146759 196329 83484.2
159970 190774 89773.8
179225 168614 101145
183978 153774 94773.8
181087 163325 105603
183998 148774 118774
175517 178584 96519.4
168774 187774 110738
139692 196007 114505
153970 194774 117774
179237 136572 65257.8
183994 125774 75773.8
179613 133370 64219
178010 119774 51773.8
183125 153139 114823
183998 155774 131774
83150.6 160646 68822.2
81601.8 139774 66773.8
80630.2 158635 70188.2
76325.8 147774 90773.8
77658.6 151687 87455.8
77545.8 154774 106774
83680.2 172581 92932.2
80773.8 174774 109950
113445 197087 125177
112774 199886 143774
132509 196339 123369
131774 198002 139774
134073 196975 133840
145938 195774 147774
172955 182076 101923
177774 177082 117774
183736 150083 117589
181910 132774 136774
178619 124941 56503
185774 127774 37257.8
183919 149167 118418
183774 129774 118002
150205 194802 118590
162774 191890 131774
77615.8 152860 94796.6
79773.8 139602 105774
183718 154931 130269
183998 155774 145774
79439 153143 78133.8
79549.8 136774 83773.8
83856.6 141617 67531.8
85605.8 125774 66773.8
82398.6 174462 107876
86773.8 176774 127958
181384 138593 135115
177946 133774 152774
141429 196230 142479
135774 198002 159774
84061 175340 115507
96773.8 192058 121774
84941 131794 67061.8
87561.8 126774 56773.8
112029 197301 139225
105774 188418 157774
169272 186572 110447
165774 189994 119774
79126.6 143579 102481
81557.8 146774 117774
180785 134247 135515
176090 118774 134774
144585 195911 146185
157294 192774 143774
85091.8 175885 120239
83661.8 164774 128774
81190.6 138210 83787
83553.8 125774 88773.8
183398 153963 121928
181978 167774 127774
91943 185705 119393
93773.8 187774 133966
177498 123416 134996
179178 114774 119774
106763 189520 152765
100774 179162 157774
178977 135219 147476
172774 122774 149958
86775.4 128280 59860.2
91545.8 112774 59773.8
108764 192477 147620
118410 195774 164774
183006 155504 144783
180774 155774 159954
166823 188967 116976
173258 183774 128774
87325.8 127226 57699.8
91553.8 118774 47773.8
138044 197211 156784
141082 195774 171774
85766.2 127646 67923.8
89553.8 113774 73773.8
174318 125154 148422
171842 115774 143774
83644.6 147325 67919
85541.8 139774 54773.8
176091 119370 134617
171774 108774 132974
80245 145049 109515
85497.8 134774 117774
173237 123488 149497
165774 120774 160890
84091 168107 126213
89601.8 168774 141774
177945 134815 151781
174774 136774 161958
84451.8 165341 128243
87497.8 154774 135774
106071 188749 156271
111774 181198 172774
180517 155429 159062
177942 154774 169774
183914 155521 131323
182062 164774 138774
83859.8 127452 88127.4
90297.8 113774 93773.8
93559.4 186263 131824
95773.8 180970 146774
177784 115979 124682
173422 101774 116774
85791.4 123348 89821.4
87513.8 121774 104774
102323 179944 156981
100286 164774 161774
168106 122767 158566
163774 128230 172774
80996.6 147292 114923
81581.8 155774 122774
173069 111953 133467
165774 106774 141130
90179.8 115413 72181.8
96117.8 103774 74773.8
172913 122988 149819
165774 114342 151774
93386.2 109128 73581.4
96317.8 101774 63773.8
172490 184036 128079
177870 178774 139774
174604 136427 161450
170542 137774 171774
85313 136644 117271
92341.8 126774 127774
145532 195815 147297
151774 192010 158774
177610 154143 168586
173814 151774 177774
86997 122246 100288
96113.8 109774 106774
141423 194834 170087
145774 190774 182882
177842 154585 169417
173986 164774 178774
110110 180975 169173
112350 171774 178774
173167 102383 117086
168774 91773.8 111110
90127.8 115031 92566.6
97773.8 104290 92773.8
174104 182457 131587
169974 186774 143774
166473 121372 160193
155774 112774 161238
83478.2 140696 115715
87773.8 139774 129982
177153 178648 139103
180014 170774 150774
101464 167890 161627
104774 157774 169970
163770 128191 172164
160046 132774 182774
149901 193151 155331
160774 189966 155774
173644 162739 178672
169774 168906 186774
174922 107549 119972
166774 98773.8 125966
96511.4 106418 91877.8
103502 98773.8 86773.8
170092 94956.6 112903
171866 91773.8 101774
94304.6 113001 106587
100774 108774 117950
150669 192370 158305
151774 189774 169934
173993 151294 176161
167774 143774 183970
96101 103396 68181
103774 90773.8 65129.8
168274 100073 123761
161774 91129.8 121774
91451.4 129299 126758
99537.8 125774 140774
168606 92519.4 111277
162774 85505.8 105774
104656 160365 169090
110318 156774 179774
170635 147233 180377
165774 153774 196006
159866 189531 155632
169958 184774 155774
169380 168015 186141
163946 172774 193774
167224 99163.4 125304
163218 99773.8 133774
98833 110042 114541
107126 99773.8 113774
171934 92885 103379
175774 93573.8 91773.8
100244 96580.2 66533.4
101486 92773.8 54773.8
171886 92107.4 102255
166774 83773.8 92813.8
103661 91189 65179
109774 82541.8 62773.8
168307 86273.8 95646.2
157202 79773.8 96773.8
96600.6 128267 136875
98773.8 134774 147962
102627 99311.4 86855.4
110366 89773.8 79773.8
108167 158139 175714
110774 145774 177294
166011 170966 190873
159058 179774 187774
167240 185207 156844
175774 175974 163774
100797 109102 117594
109122 105774 129774
160475 177988 187351
155774 184006 178774
92074.6 127531 127469
99773.8 117774 131990
100193 96139.4 61571.8
97485.8 100774 53773.8
110157 156521 179356
115774 150774 189262
97798.2 134932 145815
97773.8 142774 152966
167725 85323.8 94569.8
172774 85773.8 83133.8
167059 84239 93340.6
161046 79773.8 87773.8
110849 148272 177915
116338 139774 184774
107139 105959 125139
115774 98773.8 127118
169800 182437 158923
168774 181286 169774
109174 84760.6 64064.6
120774 76773.8 65981.8
170855 85603 87479.4
166774 79541.8 79773.8
109341 105545 128761
116774 103574 136774
172662 85573.8 83373.4
176774 84773.8 73981.8
110796 146523 177480
113006 133774 173774
87717 156475 135884
91761.8 148774 144774
97781 140421 150821
103774 140774 162962
113183 100929 126524
118330 93773.8 119774
115656 150373 188220
121774 142774 196862
167876 80230.6 80471.8
166774 72773.8 69897.8
115617 140808 182999
121774 130774 185322
158119 182007 180821
160774 184774 171958
168822 180608 168821
167774 177550 178774
113624 105289 134868
117106 109774 147774
115829 104089 136202
123594 97773.8 135774
116490 103728 136602
125586 102774 144774
117579 96258.2 122957
128774 89541.8 121774
122857 103060 142322
130666 97773.8 140774
115783 108070 142870
110206 116774 147774
125339 91225 120788
132226 84773.8 111774
124767 102860 144038
131774 106310 155774
127956 88773.4 117363
137774 85565.8 119774
111309 115889 147885
107774 123562 153774
90548.2 151084 142107
94773.8 154774 151890
128621 105834 152226
126774 111538 159774
132270 85401.8 112723
140774 81545.8 107774
108835 121260 152007
112998 123774 161774
107840 123326 153011
103774 131578 155774
132239 84962.2 112059
128774 83493.8 100774
128508 98784.2 140199
134774 91773.8 132798
131343 83604.6 104786
136482 79773.8 94773.8
111749 123020 158844
119774 117546 162774
117366 119188 161595
122774 120774 171946
128121 109855 158288
131774 113774 168030
134194 214544 30670.6
130774 210058 36773.8
130997 211153 35825.8
125774 209230 41773.8
135451 210361 46323.4
136774 208774 53889.8
126325 209157 41377.8
121774 206774 47157.8
131601 207748 50708.2
131774 205882 58773.8
132680 206670 55865.4
138774 205778 62773.8
122111 203027 55670.6
114318 201774 49773.8
132376 205745 58270.6
132774 202038 65773.8
137944 205222 61995.8
142774 202774 67889.8
116656 202150 51543
109774 197422 54773.8
133086 202582 64897
135774 198774 73981.8
157161 195495 66522.6
157774 193774 78053.8
148927 198991 72853.4
142774 199886 74773.8
108883 191240 65335
104158 191774 58773.8
134768 199413 72759.8
133774 195998 82773.8
156839 192134 87375.4
163086 189774 84773.8
125793 197947 71536.2
125774 195194 78773.8
97667 183702 64023
97773.8 187258 55773.8
110300 191964 71643.8
103574 186774 74773.8
166795 182933 69752.2
171846 179774 73773.8
126061 195960 78399
126774 193998 87773.8
134372 196551 82089.4
134774 194070 91773.8
104295 187595 74892.2
98461.8 183774 78773.8
125860 195424 78661.4
118774 191990 84773.8
125881 194356 86167
121774 192774 94377.8
170629 179900 72506.2
175782 172774 74773.8
139514 196074 98867
133774 195262 97773.8
174431 173718 73881.4
176070 165774 72773.8
99073 184105 77585.8
91577.8 178774 77773.8
115903 192577 99267.4
119774 193998 102774
169952 175795 67888.2
169986 166774 54773.8
90488.6 177207 84608.6
86773.8 173974 79773.8
175901 166799 73213
178022 157774 73773.8
89077 175979 82771.4
83773.8 171242 84773.8
175239 179285 107301
179978 171774 109774
85774.2 172713 83212.6
81773.8 167206 79773.8
119259 193780 102667
125774 195994 110774
111170 190794 94709.4
108654 191774 102774
178524 147453 69621.8
[...]
CELL_DATA 1581
SCALARS radius float
LOOKUP_TABLE default
2.122e-314
100
100
1.15668
0.205884
1.1545
0.936933
0.894203
0.0997338
0.893178
0.928866
0.174016
0.239199
0.923548
0.570894
0.806768
0.0568671
0.570706
0.700136
0.760918
0.0544416
0.700027
0.764196
0.423018
0.0694316
0.764005
0.219884
0.557281
0.116083
0.75869
0.749962
0.289016
0.0808228
0.388731
0.583315
0.510462
0.582164
0.105465
0.37092
0.197554
0.1356
0.548056
0.37493
0.716866
0.165936
0.551698
0.0745108
0.757843
0.342422
0.221599
0.0729487
0.341315
0.236366
0.473597
0.492461
0.238587
0.117857
0.565081
0.294081
0.517074
0.24926
0.215059
0.0480547
0.219116
0.712556
0.177997
0.0626793
0.712394
0.372199
0.10456
0.0470323
0.248701
0.326047
0.17214
0.0827634
0.324259
0.625284
0.487257
0.709056
0.426557
0.0669762
0.708857
0.0957833
0.478044
0.459121
0.193854
0.562961
0.106708
0.505751
0.195368
0.176389
0.498496
0.245841
0.33233
0.179134
0.620345
0.201928
0.258656
0.0555605
0.177335
0.197078
0.197709
0.120482
0.475479
0.479065
0.154788
0.479322
0.626634
0.0843033
0.415535
0.441488
0.191577
0.53596
0.424027
0.411379
0.367651
0.355424
0.345247
0.366604
0.282222
0.555527
0.130938
0.317748
0.148293
0.465029
0.160301
0.520849
0.125025
0.371616
0.263518
0.158722
0.344544
0.624377
0.115965
0.484392
0.126588
0.13136
0.318631
0.237496
0.50384
0.297073
0.500728
0.369169
0.291552
0.205993
0.218155
0.253296
0.534463
0.0754533
0.47844
0.153103
0.305428
0.0754238
0.202566
0.112155
0.299105
0.0824394
0.365209
0.350519
0.193512
0.416688
0.173945
0.065811
0.235799
0.187271
0.452772
0.323931
0.208587
0.312797
0.205044
0.168648
0.271378
0.0813598
0.310951
0.0803711
0.295099
0.0727831
0.470167
0.0578555
0.152045
0.0756285
0.622788
0.227852
0.263325
0.48586
0.236396
0.309105
0.596296
0.203045
0.489342
0.180943
0.303899
0.100113
0.177203
0.163058
0.187243
0.0895009
0.363409
0.0573935
0.207129
0.118043
0.359209
0.0791053
0.285763
0.0760699
0.245089
0.4113
0.265853
0.0658436
0.370926
0.30553
0.419212
0.0984388
0.594439
0.112647
0.271492
0.0615799
0.411545
0.117708
0.274288
0.072738
0.456628
0.081518
0.291996
0.251794
0.194622
0.0927865
0.172414
0.445416
0.140487
0.0907078
0.247807
0.103687
0.485484
0.0897251
0.269223
0.222809
0.336283
0.140318
0.406035
0.457243
0.267287
0.14253
0.273709
0.228412
0.432905
0.0968564
0.591256
0.0877688
0.218174
0.156521
0.291173
0.116461
0.355081
0.208081
0.203487
0.244463
0.380224
0.0824761
0.22477
0.103939
0.483891
0.249486
0.185989
0.0859821
0.327932
0.395088
0.149647
0.164422
0.16588
0.584572
0.190665
0.410259
0.229434
0.322126
0.224694
0.0770913
0.40935
0.193416
0.296968
0.38631
0.222012
0.12951
0.371668
0.240912
0.159935
0.357317
0.390046
0.378045
0.196968
0.309859
0.176679
0.0605339
0.584355
0.36422
0.178771
0.0774083
0.241848
0.15296
0.198026
0.0740894
0.356252
0.116982
0.288928
0.188113
0.370829
0.0958051
0.179435
0.302989
0.280355
0.504988
0.407902
0.2347
0.256229
0.128898
0.274373
0.220357
0.334111
0.0774252
0.50438
0.0911122
0.215037
0.0882129
0.300476
0.165813
0.294366
0.253709
0.198224
0.106374
0.405477
0.220515
0.304406
0.132489
0.311628
0.243339
0.196837
0.252244
0.318359
0.127946
0.221272
0.373275
0.424147
0.358659
0.180424
0.0629439
0.358012
0.116389
0.402254
0.313394
0.23663
0.415187
0.167908
0.123369
0.394468
0.09179
0.310747
0.259614
0.345433
0.096704
0.408083
0.1372
0.269545
0.148826
0.289851
0.178496
0.32061
0.255998
0.362413
0.0933903
0.251786
0.0765325
0.31915
0.124082
0.224662
0.165485
0.259548
0.136686
0.346927
0.149202
0.321266
0.21237
0.210761
0.0538758
0.204647
0.0675468
0.188051
0.0910111
0.936647
0.0649332
0.155533
0.930898
0.243514
0.222061
0.151685
0.0758825
0.169067
0.055557
0.220896
0.0721694
0.146031
0.141709
0.125715
0.213568
0.101232
0.805611
0.131131
0.0912086
0.569929
0.759859
0.122485
0.0839648
0.190822
0.164464
0.173611
0.050396
0.238451
0.0743692
0.104858
0.69208
0.226049
0.216288
0.403262
0.173126
0.203029
0.0953675
0.166998
0.202942
0.137777
0.0478663
0.171898
0.127864
0.184481
0.0711675
0.213688
0.102298
0.112473
0.0792896
0.209986
0.074218
0.199577
0.566785
0.168648
0.389892
0.168107
0.0645607
0.23475
0.0788702
0.206209
0.0951776
0.229414
0.120399
0.235812
0.0923361
0.224315
0.114395
0.148876
0.571719
0.218488
0.129405
0.205788
0.0738411
0.273033
0.263615
0.12671
0.0703275
0.216032
0.223922
0.123535
0.0774576
0.168758
0.111121
0.471549
0.0927683
0.259729
0.128058
0.132922
0.515288
0.1126
0.131058
0.210698
0.757174
0.104798
0.0598695
0.144966
0.21313
0.094313
0.187745
0.151314
0.0783503
0.177013
0.4532
0.154617
0.0857374
0.195643
0.716239
0.0988537
0.0691215
0.184569
0.125926
0.176428
0.325905
0.170865
0.121333
0.124075
0.0988911
0.246087
0.117038
0.180224
0.0791432
0.192728
0.122458
0.120564
0.4923
0.150497
0.328169
0.110832
0.184637
0.147756
0.0663226
0.18889
0.122872
0.235421
0.612866
0.197424
0.471293
0.141183
0.52324
0.220381
0.0880864
0.16874
0.557941
0.167864
0.625708
0.102911
0.179112
0.124906
0.0960733
0.169378
0.129363
0.208491
0.160718
0.187122
0.197872
0.159817
0.098518
0.235468
0.126847
0.178698
0.153053
0.473161
0.271236
0.309823
0.212231
0.205994
0.0802589
0.151563
0.0620623
0.165798
0.0961522
0.139184
0.0902837
0.206639
0.339773
0.118775
0.267416
0.149712
0.106069
0.17264
0.12826
0.202244
0.137521
0.199515
0.450027
0.118835
0.131316
0.18219
0.220779
0.134793
0.200768
0.216631
0.470748
0.117274
0.0882427
0.193587
0.623159
0.112438
0.0870094
0.216179
0.114006
0.165896
0.136134
0.289393
0.0720498
0.14393
0.219273
0.166397
0.109577
0.134203
0.287769
0.117492
0.298726
0.142212
0.0793594
0.159517
0.412004
0.15515
0.0648343
0.264562
0.241081
0.13901
0.108415
0.593235
0.0646948
0.200832
0.070589
0.21364
0.0906101
0.168925
0.151443
0.175582
0.107003
0.190148
0.272504
0.198579
0.281331
0.128221
0.143729
0.257212
0.18529
0.229931
0.103059
0.19701
0.194534
0.19452
0.10217
0.187388
0.122032
0.176993
0.160605
0.185093
0.0823767
0.132695
0.125403
0.19814
0.0747844
0.181137
0.121705
0.181994
0.45314
0.129373
0.130581
0.166893
0.186151
0.235512
0.103761
0.25608
0.0735149
0.150917
0.329891
0.12862
0.262429
0.134481
0.0992645
0.165548
0.122249
0.172178
0.218864
0.167904
0.10916
0.221418
0.0715802
0.143976
0.0698735
0.16164
0.0547853
0.19194
0.152247
0.228942
0.368036
0.211712
0.121168
0.149261
0.105009
0.174086
0.116144
0.206203
0.169173
0.18185
0.126756
0.185371
0.155478
0.217039
0.133878
0.185773
0.164125
0.186833
0.171728
0.227393
0.107774
0.249552
0.47171
0.202815
0.105015
0.186468
0.153963
0.218949
0.1794
0.245968
0.129699
0.212355
0.132512
0.18187
0.0982434
0.212147
0.0781212
0.217197
0.145871
0.285043
0.140359
0.229678
0.295184
0.281591
0.24166
0.212007
0.19889
0.187023
0.224711
0.266447
0.203551
0.270412
0.130033
0.272027
0.163678
0.228598
0.190022
0.207797
0.156973
0.217188
0.114578
0.263374
0.164419
0.171503
0.116663
0.194736
0.388674
0.13865
0.409885
0.139371
0.280908
0.149492
0.400784
0.153
0.26656
0.175562
0.213249
0.198321
0.163142
0.174957
0.112814
0.26279
0.163402
0.239774
0.331654
0.174083
0.0928435
0.204575
0.23234
0.249056
0.0811917
1.15436
1.15417
0.0918477
0.159218
0.13775
0.936419
0.08426
0.893592
0.0962608
0.103911
0.138216
0.0740695
0.89278
0.114328
0.110557
0.0753483
0.115954
0.921997
0.108475
0.922497
0.139026
0.102062
0.205497
0.110087
0.110603
0.0931374
0.164172
0.0842472
0.569314
0.759595
0.0770181
0.805166
0.0953099
0.0607575
0.128548
0.0761976
0.121923
0.400042
0.115933
0.0485977
0.135732
0.74954
0.0892312
0.0868608
0.122655
0.133271
0.13946
0.758083
0.0789775
0.0959446
0.278378
0.0532986
0.108333
0.0978343
0.12861
0.0953949
0.192031
0.0932265
0.184408
0.0506263
0.100444
0.0439805
0.112186
0.547015
0.0978118
0.100401
0.183181
0.126131
0.137215
0.0890929
0.161354
0.174031
0.181875
0.0949832
0.23346
0.0648836
0.110899
0.106575
0.152275
0.0919368
0.146996
0.0915892
0.199554
0.102133
0.151882
0.251299
0.118194
0.119224
0.122455
0.0701123
0.196626
0.148308
0.122511
0.190961
0.300482
0.109182
0.120391
0.051644
0.113586
0.131425
0.157091
0.101606
0.207217
0.136735
0.155098
0.274822
0.0934607
0.0747519
0.122392
0.711483
0.11148
0.111274
0.126638
0.0480785
0.10335
0.14683
0.171771
0.0823148
0.165223
0.0656277
0.188342
0.0665949
0.150893
0.053945
0.158667
0.148983
0.241002
0.167035
0.203177
0.211941
0.164824
0.105882
0.177076
0.105117
0.11823
0.114556
0.159386
0.0669306
0.11721
0.340863
0.115676
0.463209
0.105551
0.122491
0.11526
0.108407
0.554148
0.552792
0.107609
0.145303
0.215355
0.24744
0.103267
0.263524
0.118265
0.496944
0.104864
0.0712225
0.106213
0.143079
0.153587
0.294155
0.144858
0.421894
0.104602
0.311027
0.131249
0.158572
0.121602
0.0592793
0.130857
0.18507
0.13544
0.0739547
0.154872
0.0759919
0.137522
0.143214
0.172749
0.125827
0.173848
0.289943
0.109795
0.0972998
0.153778
0.126109
0.114709
0.255596
0.116994
0.0833941
0.146352
0.277808
0.140875
0.17952
0.141535
0.111453
0.156999
0.146337
0.172563
0.0656867
0.156029
0.221723
0.130268
0.0838597
0.165692
0.247508
0.122856
0.136259
0.167803
0.294099
0.106843
0.105433
0.150886
0.595338
0.10067
0.161318
0.250999
0.0977524
0.124764
0.487056
0.117802
0.0825791
0.155669
0.121054
0.203218
0.157162
0.138952
0.15893
0.155376
0.261637
0.139686
0.467526
0.120309
0.163914
0.177408
0.0938123
0.142754
0.17799
0.216687
0.111885
0.181304
0.114825
0.165118
0.0813265
0.130547
0.143342
0.193356
0.286029
0.114349
0.259304
0.118412
0.135238
0.151391
0.0913652
0.166915
0.592121
0.105476
0.280045
0.139652
0.366155
0.124806
0.376837
0.113335
0.203331
0.143408
0.0962277
0.157588
0.402119
0.124252
0.141528
0.196179
0.107517
0.168344
0.143996
0.175874
0.165269
0.171382
0.155264
0.210445
0.117225
0.179266
0.070624
0.155207
0.206541
0.148374
0.0910237
0.169031
0.173847
0.188948
0.0866199
0.153504
0.129342
0.169936
0.112643
0.582957
0.124652
0.177722
0.363547
0.148763
0.581517
0.113553
0.283546
0.150268
0.165817
0.178261
0.114675
0.161411
0.363416
0.144187
0.217818
0.178791
0.338918
0.184535
0.0941527
0.245002
0.130306
0.275661
0.114962
0.184393
0.319415
0.167606
0.17145
0.173319
0.191822
0.207267
0.287008
0.151638
0.10593
0.172078
0.0975265
0.188509
0.297247
0.181741
0.25111
0.162558
0.121751
0.197676
0.182246
0.234305
0.39845
0.122299
0.353115
0.122919
0.208662
0.209417
0.132288
0.152668
0.0912626
0.162416
0.30238
0.133124
0.338082
0.137075
0.139103
0.172227
0.35386
0.148745
0.113153
0.148656
0.280273
0.218914
0.121544
0.205636
0.113348
0.195289
0.182834
0.173553
0.201709
0.210125
0.303625
0.17289
0.124272
0.238283
0.190912
0.090624
0.197489
0.0953993
0.893964
0.0829768
0.0969872
0.119384
0.0545791
0.0939573
0.89295
0.0816455
0.892602
0.0752919
0.0519426
0.0964516
0.196094
0.104393
0.0880069
0.134488
0.0523012
0.104261
0.176781
0.112496
0.0438172
0.108261
0.069342
0.114577
0.103813
0.148971
0.22222
0.0832549
0.080167
0.116355
0.568466
0.0937498
0.556657
0.0834445
0.075775
0.103946
0.282127
0.119011
0.114674
0.16834
0.758368
0.082177
0.0673114
0.134024
0.145239
0.119043
0.0784761
0.106334
0.0601088
0.0985075
0.103403
0.154178
0.550809
0.0932167
0.102974
0.187749
0.169943
0.126637
0.190735
0.122307
0.113506
0.168788
0.0619044
0.118119
0.133723
0.134163
0.115828
0.120409
0.166191
0.126578
0.158121
0.172236
0.09739
0.172045
0.119966
0.150116
0.470363
0.0923968
0.200985
0.107286
0.226401
0.103839
0.564236
0.093167
0.0638925
0.121046
0.111795
0.195747
0.0945073
0.138548
0.181989
0.107937
0.146696
0.173586
0.294486
0.116762
0.120961
0.119223
0.0967415
0.18753
0.107076
0.156931
0.122204
0.179432
0.140209
0.156577
0.167998
0.0964784
0.0575796
0.153937
0.128548
0.150697
0.120646
0.155163
0.0934474
0.137617
0.61962
0.0941837
0.128134
0.166036
0.111204
0.161363
0.123445
0.128327
0.162196
0.116637
0.155123
0.115236
0.0639065
0.11906
0.138424
0.115709
0.116365
0.146659
0.11155
0.185083
0.149943
0.143726
0.0856111
0.117384
0.0584136
0.115808
0.102684
0.127481
0.149912
0.117429
0.066545
0.118396
0.0736863
0.164596
0.0689649
0.148805
0.304272
0.116227
0.533404
0.0967672
1.09542
0.0955389
1.09518
0.154614
0.729248
0.718951
0.196791
0.971702
0.733159
0.226312
0.711397
0.127589
0.970968
0.219268
0.699003
0.105435
0.934654
0.935101
0.460639
0.133957
0.931892
0.112085
0.458416
0.101455
0.929289
0.686018
0.246974
0.218328
0.678566
0.0951969
0.452184
0.158091
0.925138
0.112437
0.671418
0.435193
0.215697
0.11492
0.667232
0.9218
0.174907
0.91409
0.269111
0.347907
0.342882
0.839742
0.55572
0.118464
0.343267
0.078496
0.839514
0.20974
0.217313
0.134816
0.665392
0.247286
0.293143
0.103101
0.241162
0.13837
0.552845
0.11924
0.838711
0.195704
0.3206
0.145532
0.533869
0.828402
0.278022
0.21389
0.248822
0.0971121
0.210646
0.237961
0.269058
0.108663
0.827778
0.160616
0.662258
0.158763
0.529147
0.53745
0.239438
0.518426
0.753537
0.117661
0.270812
0.306318
0.63965
0.189006
0.23579
0.119319
0.51631
0.158508
0.213593
0.127994
0.526639
0.143099
0.213734
0.116755
0.300556
0.178487
0.634984
0.233275
0.74601
0.134708
0.513235
0.619118
0.265506
0.143619
0.523054
0.131662
0.744641
0.446592
0.358619
0.127841
0.443073
0.217173
0.256662
0.136868
0.743096
0.195207
0.61258
0.12221
0.256578
0.20697
0.604601
0.210056
0.511509
0.116347
0.742144
0.142327
0.438122
0.257602
0.406162
0.233815
0.321846
0.127301
0.315066
0.160676
0.506168
0.547582
0.384438
0.23272
0.265295
0.191152
0.391529
0.127007
0.740902
0.130037
0.545127
0.192137
0.321457
0.155678
0.375733
0.342879
0.447097
0.201689
0.735886
0.118582
0.734859
0.53262
0.626362
0.283715
0.311435
0.100649
0.543981
0.32394
0.381168
0.268142
0.344091
0.146588
0.313608
0.251239
0.340624
0.12834
0.530124
0.145033
0.623759
0.292966
0.498444
0.201284
0.534635
0.152961
0.27835
0.170013
0.619521
0.1521
0.493678
0.25196
0.515289
0.213956
0.610895
0.177329
0.485931
0.24565
0.597357
0.49118
0.455741
0.188559
0.481737
0.250097
0.494851
0.281672
0.45208
0.268169
0.422412
0.266128
0.381255
0.290137
0.459082
0.297521
0.366019
0.288304
0.409026
0.420336
0.334808
1.09462
0.125954
0.731557
0.137095
0.723833
0.128829
0.154158
0.158177
0.115166
0.215899
0.155038
0.185052
0.725191
0.186019
0.143039
0.151978
0.706122
0.159327
0.708816
0.157483
0.111286
0.209263
0.142277
0.184533
0.696526
0.153517
0.161816
0.221229
0.133007
0.933756
0.932813
0.135038
0.0782882
0.217911
0.929692
0.178808
0.0954859
0.169228
0.453586
0.144433
0.178067
0.168228
0.167549
0.178045
0.0615439
0.154919
0.16395
0.67536
0.672467
0.157964
0.926674
0.189038
0.668366
0.160166
0.149212
0.188644
0.135396
0.162275
0.923894
0.147187
0.101479
0.162687
