# vtk DataFile Version 3.0
Tree
ASCII
DATASET POLYDATA
POINTS 1582 float
162774 225274 273.8
162774 225274 10273.8
141774 225774 23773.8
134174 214102 30497.8
136454 217603 28480.6
143774 208774 53957.8
139821 213542 40200.2
119774 201842 57773.8
144006 208801 52177.4
153058 199774 67773.8
146722 206093 56856.2
134774 198774 73969.8
123185 202391 57791
114774 193774 72897.8
120662 199806 62323
100690 189774 58773.8
152533 200279 64059.4
168774 183974 74773.8
135121 199190 72887.8
125774 193986 84773.8
163434 189653 73543.8
171234 183774 92773.8
134878 198899 73645
142774 195998 91773.8
167172 185677 74404.6
173782 166774 64773.8
104806 190943 61272.2
91573.8 178774 69773.8
115383 194593 72405.4
107774 187990 89773.8
127598 195393 83944.6
120774 193998 101774
167646 186478 83927.8
180018 165774 85773.8
171167 169183 64495.8
171998 153774 52773.8
140222 196781 89539
139774 195998 110774
175317 173641 85072.2
181774 167074 105774
96731.8 183726 69009.8
87773.8 176774 90429.8
172997 167497 64690.2
179986 148774 73773.8
92544.6 178919 69944.2
79717.8 161774 73773.8
140087 196546 95909.4
154774 193998 104774
93597 181580 83078.2
95773.8 184006 94773.8
121837 195005 101109
116774 196002 119774
178111 151729 70621.4
180070 133774 68773.8
180784 166978 104725
183774 161102 119774
119103 195543 111188
130774 195998 121774
119923 195382 108164
102774 193782 114774
129583 195875 119755
144774 195998 127774
142008 196233 91103.4
155970 192774 89773.8
179095 138798 67600.6
178002 124774 55773.8
178929 166567 86508.2
183998 151774 92773.8
182638 163335 114055
183998 145774 115774
154003 193071 103617
168806 187774 110774
88680.6 176740 88716.6
76365.8 161774 100774
83769.8 162781 72548.2
79529.8 145774 73773.8
81045.4 167461 96192.2
75553.8 152774 87773.8
81480.2 153597 73210.2
83529.8 143774 59773.8
88045.8 176764 89915.8
84773.8 181954 109774
117309 196375 119429
114774 199814 138774
142675 195653 124909
159078 193774 122774
130417 195961 121168
134774 197994 137774
144144 195895 126914
147774 195262 141774
178825 128140 56924.2
181774 121774 41181.8
166300 186724 109324
176774 177970 113774
182629 153528 91502.2
183998 135774 95773.8
183563 148033 117184
183998 133774 122774
77769.8 163480 99399.4
79541.8 142774 105774
183833 139193 120650
181986 136774 140774
182983 138080 129907
183998 156774 142774
82915 146721 63804.6
85017.8 129774 65773.8
134219 197339 136660
137774 197978 152774
113905 197302 136277
108774 194774 151966
85797.4 179967 106669
85773.8 177774 125898
80115 148121 73604.6
79569.8 135774 84773.8
78641 154454 103783
79561.8 150774 114774
105742 193578 115459
93773.8 191226 124774
97364.2 191931 121979
98773.8 191978 136774
181465 136531 139098
175774 131774 155970
146685 195451 137316
163018 191774 141774
168054 187459 110339
171258 185774 121774
183948 135399 122137
177774 118774 132806
109415 194057 148403
103462 184774 156774
85225.8 177353 115657
81773.8 166774 122794
183693 151166 138914
181874 151774 156774
136707 197786 147940
126774 200002 156774
84779.4 135785 63107
89773.8 120658 52773.8
137133 197851 152268
137082 197774 166774
85539.8 130539 65187
89477.8 116774 69773.8
183433 161772 118058
181998 166774 129774
79803.8 150662 111627
83593.8 140774 119774
108966 194559 150897
114282 191774 165774
80381.8 137427 82878.2
84317.8 123774 92773.8
86281.8 176926 124552
90773.8 172774 141890
180923 126346 125680
177774 112298 120774
83236.6 168790 122404
85565.8 160774 133774
177937 133581 149559
170402 119774 151774
104334 184977 154655
99773.8 174890 158774
83819.8 144061 60247
87489.8 136774 50773.8
177807 120258 132137
171938 114774 141774
88345.4 121573 66401.4
93485.8 108774 59773.8
177784 119219 132605
171842 108774 132774
82571 142835 116503
85761.8 130774 116774
175444 131991 154803
166774 127774 167326
170793 185753 121475
173258 183774 133774
89648.6 117193 69013.4
93529.8 107774 72773.8
148005 194995 141282
152774 192774 151954
181365 152979 154699
177978 156774 169774
112775 191126 163079
113774 181774 175218
178344 114691 120699
175774 102298 110774
84259.8 125920 90101.8
91493.8 112774 92773.8
137753 197375 164590
141774 194774 179150
84300.2 124418 91972.2
87641.8 120774 104774
172799 115275 139082
166774 107774 141130
84804.6 134392 116692
90349.8 128774 125774
140381 195635 169807
148774 189962 173774
175675 131839 155620
173774 139774 167970
101054 175917 158082
100122 162774 161774
170068 129376 162567
161978 117774 161774
107078 189880 151279
97005.8 183774 145774
172604 109876 131699
167774 100774 129130
87397.8 120789 100433
94253.8 111774 105774
112825 183227 170907
109494 168774 174774
167754 129011 166551
161774 130774 179130
92667.4 110969 62123.4
97553.8 99773.8 63773.8
183595 156491 141843
181886 168774 145774
178164 155025 166963
172774 151598 178774
181783 166717 144153
177854 177774 141774
176116 153723 171451
173774 163774 181018
151248 192925 151340
152774 190774 161958
91217.4 114405 91639
98773.8 103574 91773.8
169484 103400 128859
167914 96773.8 120774
100871 165343 161757
103678 155774 168774
168346 97722.6 121277
167974 90773.8 108774
90374.2 129732 125542
96773.8 125774 135326
176038 103445 110636
174514 95773.8 101774
111259 173553 174623
113774 166774 183362
173431 151136 176185
167206 141774 182774
88216.6 120503 103779
92773.8 118774 115958
172602 151490 178542
168774 152774 188026
93455.4 113508 105922
101774 106774 117134
178692 174059 143917
171774 185198 149774
172862 162237 180408
167842 169774 189774
181855 168157 145287
178774 172774 153954
97965 105266 91317.4
107570 94773.8 88773.8
168599 91881.4 109535
169886 88773.8 100774
97936.6 100557 63525.8
104506 89773.8 64773.8
168043 97058.6 120925
160774 90773.8 121950
113019 168807 180740
110774 157774 179970
168985 90949.4 106906
159942 81773.8 101774
95433 127403 134007
99537.8 129774 144774
99702.6 108011 112646
107774 98773.8 113106
174962 97425 102792
174774 92773.8 91953.8
100433 96459 63999.8
102322 89773.8 53773.8
104688 97921.4 89537
105990 93773.8 78773.8
178906 172507 152479
173774 179774 160134
92715.4 118767 115121
97773.8 116774 126890
168068 168868 187525
159774 177838 191774
111520 159213 180294
111774 146774 180802
168923 88973 102011
165774 83513.8 90773.8
104665 90599 64845
113502 82773.8 66773.8
101837 106776 115775
109774 102282 123774
147068 190671 173683
152774 184086 180774
97321 128493 138960
94773.8 138774 143958
93563 108949 60179.8
97485.8 100774 52773.8
174554 92582.2 92952.2
173774 86773.8 83133.8
111970 162091 180428
115562 153774 189774
96085.4 136016 143727
97773.8 144774 154806
176135 176431 156613
175774 172774 168898
111780 148872 179961
112306 137774 175774
108191 103704 123044
113774 103774 133990
173529 179037 159436
164774 184774 165962
96371.4 126262 134930
103598 116774 137774
164821 84146.2 92969.8
158774 79533.8 85773.8
111775 147403 180549
117774 139774 187970
113270 83317.8 66309.8
122774 75773.8 67321.8
161556 81655.4 89083.8
166774 78773.8 77957.8
115872 156155 189078
120774 152774 197970
97267.4 142146 151482
104342 138774 161774
109299 102709 123555
118774 95773.8 124974
95089 138547 143656
91497.8 148774 142774
167400 183053 164004
165774 180006 176774
112080 139651 175784
111706 129774 167774
116989 141694 187199
123734 138774 196774
117538 140350 187739
121518 128774 181774
113781 103746 132406
121774 103774 143970
165664 78232.2 79226.6
168774 73545.8 69773.8
116857 104739 138542
115774 110774 147326
113223 102895 129626
123774 97773.8 135954
115120 97915.8 123098
121774 89773.8 115934
88703 131130 122887
90773.8 137594 134774
121767 104101 143144
128774 103562 148774
120908 92203.4 118699
132226 86773.8 117774
92131.8 148021 143056
89657.8 157774 142774
115173 109922 144781
108774 119774 151110
126041 104523 147649
130774 108774 158030
130327 87391.4 116390
138378 82773.8 111774
110821 118581 151009
108774 126774 157982
97621.8 143985 153809
95497.8 154774 152774
127501 88835 117083
128774 83773.8 106798
131656 86959 117359
134750 89773.8 128774
136539 83600.6 111777
140774 79773.8 102894
112789 130694 169217
115146 121774 163774
129207 84775 107282
131774 81565.8 96773.8
123482 98443 134987
131774 95773.8 137926
115297 123062 164570
120774 113774 158966
114143 126573 166708
122774 119774 170886
121283 120769 169195
128774 113774 166862
136848 215704 32945.8
132774 211870 37773.8
133996 213020 36325.4
125774 209262 33773.8
133141 212215 37339.4
126774 209886 42773.8
128022 210298 40591.8
119774 207006 40773.8
143843 208782 53423.8
136774 206774 57969.8
122908 208257 40704.6
119774 205202 48773.8
139752 203507 62694.6
131774 202774 63965.8
120797 202007 57779
114746 201774 52773.8
121419 200581 60963.4
125614 199774 67773.8
116015 201295 54525.4
108686 197774 52773.8
155830 196779 68260.2
155058 195774 75773.8
152901 199925 66659.4
145774 199774 73941.8
154841 197829 66999.8
161978 192774 64773.8
155988 195577 73984.2
159774 191854 81773.8
119110 197336 67735
122774 195198 75773.8
160623 193299 65655
166062 186774 66773.8
155337 195715 75237
148774 196018 80773.8
113101 192612 77615.8
105574 187774 77773.8
101092 187623 64831.4
95773.8 184414 61773.8
137449 197136 84009
133774 194022 89773.8
168871 180066 69049.8
169814 179774 63773.8
107214 188816 78431
102774 185890 82773.8
126321 194408 84525
118774 191994 83773.8
121642 192911 84059.4
116774 191874 91773.8
173015 177493 84729
175946 171774 74773.8
91865 178817 69825
88321.8 175774 63773.8
175043 171924 77399.4
176070 165774 72773.8
176887 172421 92717
175994 177774 101774
93975 181265 75120.2
89573.8 176774 78773.8
121093 194300 101574
114226 192774 103774
175443 157769 66051.8
175890 150774 62773.8
170851 162415 55851
169998 160774 49773.8
176007 167494 75183
178774 159170 75773.8
90549 178579 86574.2
85573.8 172774 83773.8
86238.6 172907 83549.8
82773.8 167978 80773.8
124224 195244 97547.4
127774 195962 108774
115177 192875 102900
107774 190550 101774
170230 160517 50854.6
170014 155774 45773.8
178004 162554 76462.2
181774 157774 82505.8
179905 167439 101350
182022 159774 103774
[...]
CELL_DATA 1581
SCALARS radius float
LOOKUP_TABLE default
2.122e-314
100
100
1.15343
1.15315
0.103521
0.987397
0.824418
0.103006
0.987023
0.753807
0.810545
0.165754
0.821062
0.247932
0.812545
0.137938
0.808587
0.372591
0.719528
0.401384
0.769078
0.0440727
0.372386
0.398979
0.104925
0.810796
0.114237
0.221012
0.106183
0.173953
0.715875
0.767205
0.149109
0.373245
0.214765
0.132246
0.363082
0.247054
0.751886
0.667489
0.615342
0.0641564
0.372612
0.105103
0.666619
0.218378
0.331754
0.609672
0.162512
0.704479
0.25159
0.22785
0.326483
0.0670277
0.746582
0.577992
0.512809
0.689606
0.27884
0.39488
0.415052
0.0656556
0.126615
0.11437
0.318317
0.0697998
0.245183
0.734579
0.254831
0.149593
0.308827
0.529899
0.420075
0.65876
0.197165
0.502525
0.276535
0.592019
0.427966
0.0541337
0.418424
0.108573
0.576712
0.335231
0.288051
0.0582758
0.39697
0.3295
0.123842
0.204716
0.271148
0.2474
0.225087
0.0918482
0.20481
0.732764
0.143131
0.0824775
0.501783
0.622295
0.531013
0.538753
0.439007
0.166609
0.415136
0.0743243
0.39379
0.0888135
0.57239
0.0943763
0.38165
0.109862
0.590755
0.493781
0.172784
0.262262
0.130184
0.110266
0.255597
0.0799787
0.430553
0.297014
0.180391
0.0794941
0.244633
0.0757151
0.530499
0.541107
0.299322
0.294938
0.278423
0.387961
0.461015
0.360864
0.235152
0.387987
0.212663
0.123897
0.355929
0.0712913
0.387183
0.208168
0.195984
0.486665
0.172471
0.532415
0.19586
0.082816
0.589456
0.0884678
0.263156
0.477901
0.324124
0.281556
0.149422
0.401228
0.24047
0.0894307
0.287874
0.0633376
0.1635
0.463954
0.171158
0.192717
0.370565
0.0590156
0.463636
0.100459
0.485234
0.268234
0.356458
0.190318
0.161948
0.0780752
0.188347
0.0679419
0.295824
0.0937695
0.446701
0.527755
0.157781
0.0920771
0.313851
0.565777
0.279362
0.101281
0.333953
0.0681288
0.565448
0.112531
0.153107
0.10213
0.477769
0.298166
0.197847
0.0599628
0.267231
0.0930502
0.234999
0.276674
0.27374
0.290723
0.130947
0.166834
0.45632
0.233324
0.551882
0.52217
0.140737
0.100317
0.272206
0.332261
0.231944
0.3836
0.124876
0.421885
0.193148
0.284704
0.321945
0.356023
0.310596
0.224896
0.243924
0.0897363
0.271531
0.436829
0.216314
0.120371
0.223961
0.186581
0.425174
0.0767736
0.458521
0.0860943
0.305022
0.155183
0.515278
0.16799
0.283764
0.118816
0.222565
0.0684709
0.282429
0.165759
0.545236
0.249085
0.196808
0.107189
0.352755
0.0729548
0.320691
0.101185
0.241909
0.0954682
0.420786
0.0836173
0.330487
0.0627608
0.184183
0.50938
0.145569
0.371112
0.285999
0.425645
0.268164
0.537164
0.176337
0.107903
0.300453
0.167508
0.31547
0.186696
0.197033
0.091982
0.318149
0.0846549
0.209572
0.129378
0.327346
0.0909004
0.483841
0.102933
0.368454
0.300028
0.163721
0.53478
0.127125
0.215229
0.254776
0.13237
0.421334
0.218932
0.125663
0.282262
0.166719
0.484908
0.262791
0.388675
0.252404
0.284928
0.208553
0.322723
0.412205
0.429189
0.415125
0.0943794
0.281434
0.0769307
0.266037
0.12745
0.341892
0.0777472
0.321212
0.107236
0.295391
0.160195
0.329743
0.238618
0.165846
0.326996
0.287452
0.0717158
0.428521
0.0773711
0.249957
0.199035
0.243323
0.105471
0.405082
0.266844
0.227092
0.0885702
0.263551
0.0945836
0.375727
0.153239
0.241927
0.303961
0.282464
0.381939
0.251045
0.41962
0.168714
0.459237
0.204215
0.0950643
0.267983
0.121712
0.416178
0.113874
0.241816
0.27668
0.190409
0.143857
0.253384
0.316139
0.282372
0.145497
0.26256
0.106948
0.323137
0.378235
0.261944
0.240935
0.260167
0.133299
0.248571
0.117094
0.396483
0.114899
0.254357
0.107602
0.226196
0.121739
0.314714
0.320673
0.308468
0.217014
0.267453
0.207649
1.15071
0.0994951
0.199738
0.0524234
0.198527
0.114141
0.178466
0.0494914
0.0990479
0.12428
0.139072
0.751398
0.115406
0.0586518
0.163269
0.820168
0.121814
0.140908
0.115842
0.803919
0.191488
0.0610007
0.133841
0.807524
0.127697
0.156995
0.137476
0.228898
0.148088
0.0781393
0.117088
0.0561271
0.154567
0.189847
0.158119
0.124181
0.809823
0.368838
0.0982838
0.0906643
0.397413
0.126461
0.168921
0.0550231
0.172098
0.0851175
0.164857
0.760674
0.221054
0.0454414
0.102192
0.190736
0.145106
0.750223
0.141168
0.613497
0.127848
0.0502008
0.250922
0.359931
0.161352
0.149739
0.187087
0.094293
0.182723
0.60634
0.154599
0.0693791
0.149794
0.715017
0.109603
0.068545
0.24507
0.0881934
0.138755
0.139419
0.150232
0.746762
0.17032
0.216201
0.119887
0.234629
0.121692
0.32011
0.141089
0.210791
0.175149
0.135058
0.14276
0.423895
0.130372
0.167375
0.165949
0.0690219
0.186808
0.0673752
0.213998
0.0784022
0.132507
0.226615
0.393331
0.212517
0.126821
0.383564
0.164127
0.0572381
0.206715
0.11725
0.201555
0.105849
0.227217
0.129102
0.140762
0.397388
0.206034
0.128295
0.132182
0.27299
0.152642
0.0828643
0.208231
0.0712282
0.190331
0.0742058
0.201413
0.317717
0.154696
0.151046
0.254526
0.15096
0.177462
0.245235
0.18565
0.731061
0.139861
0.108695
0.177694
0.0870914
0.188594
0.573102
0.144553
0.079684
0.143163
0.526749
0.146499
0.361494
0.194711
0.122698
0.234537
0.15456
0.233902
0.139739
0.260195
0.21147
0.151022
0.117654
0.213817
0.223344
0.151819
0.0549651
0.12018
0.744663
0.147372
0.0976215
0.230467
0.523175
0.143495
0.107048
0.125445
0.133973
0.219659
0.051525
0.194664
0.471592
0.162182
0.119337
0.200629
0.346749
0.153275
0.448074
0.200182
0.220473
0.181523
0.115527
0.200631
0.131841
0.349794
0.366326
0.11996
0.525555
0.12232
0.587626
0.105479
0.33703
0.165296
0.223981
0.187585
0.0736981
0.147371
0.47932
0.160403
0.125804
0.124653
0.160496
0.157966
0.106703
0.184817
0.15004
0.234424
0.127608
0.257157
0.101628
0.216778
0.43497
0.119299
0.0730963
0.191166
0.132546
0.126869
0.129051
0.160876
0.105552
0.227062
0.114367
0.222913
0.472321
0.154503
0.307291
0.123816
0.239764
0.215969
0.0710086
0.168361
0.064859
0.1635
0.105784
0.207154
0.453839
0.11552
0.15938
0.169165
0.210888
0.223293
0.102733
0.177552
0.0889863
0.214679
0.149268
0.243617
0.0848452
0.187528
0.519928
0.122227
0.119831
0.248173
0.0649801
0.162361
0.0922003
0.225439
0.141062
0.212431
0.108816
0.204923
0.104195
0.202044
0.151768
0.191274
0.100792
0.216227
0.134511
0.182544
0.149381
0.18423
0.153282
0.201269
0.247672
0.169004
0.0975924
0.238281
0.0753654
0.222038
0.333949
0.188076
0.0889763
0.210036
0.543425
0.117215
0.15739
0.194295
0.132333
0.157817
0.169029
0.19782
0.0896306
0.143712
0.0686477
0.213984
0.469739
0.212663
0.0749657
0.205397
0.108388
0.186318
0.208673
0.179649
0.232516
0.142331
0.0715562
0.159032
0.128112
0.150081
0.173294
0.310283
0.347697
0.199887
0.532032
0.13286
0.152192
0.178416
0.127875
0.234471
0.170429
0.226289
0.16411
0.203847
0.129471
0.179837
0.224527
0.264735
0.136606
0.253444
0.209468
0.255012
0.26742
0.244504
0.215305
0.232127
0.161262
0.169586
0.161282
0.21098
0.0935726
0.142896
0.233111
0.222966
0.115833
0.223158
0.369921
0.13428
0.138783
0.188691
0.180724
0.23148
0.121835
0.213844
0.0913173
0.159279
0.100955
0.209219
0.0978667
0.205517
0.13408
0.184398
0.172978
0.185639
0.0907099
0.24951
0.173386
0.217723
0.0681262
0.239106
0.210425
0.206322
0.0999642
0.180743
0.176634
0.225138
0.148361
0.25124
0.178695
0.228329
0.137456
0.210345
0.194894
0.287518
0.109791
0.261138
0.162071
0.238408
1.15296
0.091758
1.15053
0.0888246
0.0826985
0.82414
0.0579128
0.108938
0.986775
0.0899052
0.823308
0.0807573
0.0753792
0.131259
0.752305
0.136726
0.809923
0.0898
0.0654792
0.115149
0.092637
0.12605
0.811551
0.11001
0.0557248
0.100799
0.812224
0.0859596
0.0749878
0.129596
0.101456
0.138355
0.0592875
0.134626
0.135717
0.132386
0.0527001
0.100292
0.0560207
0.128954
0.395583
0.0952017
0.0706165
0.139303
0.0733274
0.114995
0.360696
0.0978621
0.108595
0.125294
0.37043
0.0966761
0.0913371
0.666047
0.122003
0.138634
0.209984
0.104927
0.749704
0.0957067
0.664595
0.12447
0.081004
0.115932
0.0696593
0.113551
0.130214
0.135376
0.0699057
0.144321
0.0872017
0.180546
0.0555392
0.115774
0.189897
0.0934721
0.0761739
0.114124
0.117521
0.138394
0.0802774
0.117794
0.529017
0.0905293
0.0963137
0.150348
0.195124
0.162633
0.0980868
0.134899
0.0634451
0.138454
0.305508
0.115656
0.0435784
0.106181
0.168017
0.139007
0.162282
0.111228
0.0803997
0.11926
0.108863
0.114443
0.39467
0.102622
0.194592
0.111274
0.0768805
0.135319
0.1936
0.116395
0.0760614
0.181293
0.500735
0.0924498
0.1128
0.161028
0.0886831
0.128378
0.0743231
0.121549
0.0892177
0.14172
0.141732
0.145989
0.122161
0.189157
0.105895
0.115688
0.0964046
0.148393
0.0944026
0.141957
0.57006
0.131625
0.136624
0.182267
0.154534
0.179323
0.177378
0.193241
0.11683
0.110794
0.0882669
0.181915
0.107262
0.169511
0.433914
0.142777
0.431471
0.111124
0.0673345
0.118612
0.110633
0.118557
0.119599
0.159474
0.0857763
0.131606
0.428171
0.109623
0.232528
0.110049
0.108812
0.188834
0.316471
0.133056
0.261282
0.130765
0.10925
0.135728
0.10322
0.177937
0.0663794
0.158142
0.117604
0.13573
0.153121
0.131616
0.253343
0.12522
0.0788335
0.123106
0.271773
0.130973
0.127132
0.130277
0.167667
0.181745
0.122921
0.155726
0.0986889
0.155394
0.0725457
0.152692
0.0571162
0.12052
0.0547971
0.122089
0.437941
0.172603
0.121469
0.161484
0.123106
0.148525
0.106669
0.152672
0.274759
0.101963
0.324761
0.14409
0.129042
0.164507
0.124901
0.208991
0.0778436
0.163482
0.261023
0.133609
0.138675
0.208315
0.0972043
0.188563
0.0653109
0.14419
0.150025
0.149299
0.550296
0.113067
0.0838139
0.130035
0.231417
0.142469
0.227372
0.140249
0.0598549
0.11352
0.0723566
0.187646
0.0956587
0.151763
0.302169
0.133387
0.182355
0.17537
0.129097
0.1644
0.127455
0.178358
0.105515
0.145893
0.143635
0.183361
0.513312
0.115979
0.151206
0.188073
0.112922
0.172884
0.214079
0.106667
0.117497
0.147439
0.422417
0.1141
0.120542
0.162217
0.245987
0.196985
0.129306
0.133032
0.106951
0.18586
0.139644
0.175766
0.177562
0.199422
0.099824
0.215098
0.0706249
0.119399
0.119876
0.170197
0.10817
0.184806
0.149619
0.187603
0.122142
0.179949
0.196415
0.130467
0.161871
0.171276
0.117845
0.167212
0.084685
0.159092
0.246519
0.203375
0.105846
0.150011
0.121212
0.173437
0.133714
0.207454
0.209818
0.210422
0.152089
0.169779
0.204333
0.200436
0.313163
0.134434
0.407452
0.13379
0.171944
0.21204
0.111642
0.223179
0.377714
0.122282
0.0585102
0.142348
0.125621
0.180721
0.399858
0.136416
0.209111
0.173938
0.260895
0.262534
0.151729
0.24442
0.157857
0.203841
0.271913
0.134485
0.102796
0.170959
0.144109
0.205817
0.234038
0.144266
0.203797
0.178379
0.138388
0.197216
0.110876
0.20141
0.169913
0.206179
0.260743
0.168539
0.123981
0.189999
0.199021
0.19553
0.170697
0.22162
0.145302
0.20014
0.178381
0.220907
0.256737
0.189875
0.165515
0.227238
0.0623347
0.0953607
0.19284
0.0867689
0.166423
0.102435
0.823567
0.105286
0.0519597
0.100887
0.810291
0.0794386
0.0610127
0.109901
0.0904455
0.0927214
0.0736881
0.129183
0.186317
0.082112
0.0721769
0.121188
0.719282
0.0725494
0.0855207
0.121012
0.0651043
0.101814
0.0681885
0.118164
0.0659591
0.106379
0.37115
0.0800193
0.10734
0.113611
0.766846
0.0858657
0.0867498
0.138598
0.809466
0.0888872
0.0816005
0.128444
0.0670395
0.133198
0.126396
0.12459
0.215403
0.093114
0.246844
0.0911728
0.328997
0.0966485
0.110868
0.14158
0.0950921
0.136277
0.0920236
0.275458
0.102189
0.124696
0.0903085
0.128087
0.119215
0.118567
0.135851
0.150046
0.0639936
0.130431
0.323164
0.101657
0.418726
0.0892954
0.178106
0.0954357
0.416957
0.0915641
0.103881
0.147061
0.272546
0.0868791
0.510542
0.0926822
0.105581
0.150268
0.0931291
0.118645
0.310936
0.129901
0.103297
0.304926
0.511558
0.0994724
0.0774569
0.122645
0.576151
0.0823835
0.0841118
0.127148
0.29831
0.121771
0.122548
0.142647
0.0536257
0.120396
0.0561326
0.143169
0.0749687
0.0967151
0.157064
0.162565
0.146388
0.171578
0.0564823
0.135827
0.0919839
0.10805
0.379421
0.0989419
0.0835275
0.128984
0.0975716
0.136001
0.408211
0.0942566
0.40988
0.13896
0.0986385
0.119897
0.0799933
0.141352
0.156109
0.110629
0.106611
0.163579
0.13776
0.160748
0.236163
0.164409
0.111782
0.272283
0.182764
0.108495
0.59
0.0924089
0.0856992
0.118191
0.131187
0.137736
0.114197
0.165
0.0873767
0.135304
0.0881101
0.155499
0.266447
0.108303
0.0564574
0.120904
0.588757
0.0899388
0.391478
0.102256
1.12009
0.0955005
1.11986
0.151962
1.11364
0.157427
1.11121
0.243851
1.11529
0.25548
1.10669
0.139509
0.227567
0.284859
1.0984
0.0930154
0.281514
0.664177
1.00896
0.258335
1.00242
0.0881773
0.663659
0.997519
0.23198
0.983233
0.347713
0.658515
0.188934
0.0870638
0.983005
0.263164
0.287705
0.219005
0.650339
0.138014
0.982097
0.155502
0.644477
0.956473
0.416456
0.193048
0.215774
0.12436
0.955772
0.132275
0.411959
0.330297
0.941056
0.124847
0.639392
0.371888
0.26439
0.2301
0.339842
0.210586
0.298867
0.108309
0.940577
0.111426
0.221038
0.132267
0.252861
0.251075
0.934576
0.633681
0.190761
0.16783
0.325611
0.152459
0.230733
0.139043
0.288478
0.231545
0.280662
0.872164
0.534683
0.110035
0.87158
0.85567
0.328964
0.180014
0.527793
0.149202
0.523789
0.617877
0.264798
0.0778551
0.617465
0.215447
0.241052
0.256192
0.602399
0.117566
0.85493
0.165085
0.314477
0.195172
0.514596
0.142377
0.510937
0.199037
0.285272
0.161152
0.243187
0.152787
0.236622
0.130901
0.853906
0.125078
0.600597
0.794793
0.494011
0.178906
0.503518
0.0985427
0.794288
0.145943
0.489728
0.246045
0.483119
0.173742
0.475509
0.218054
0.590859
0.0938586
0.590068
0.181028
0.584333
0.373956
0.380806
0.119744
0.79338
0.330715
0.546642
0.124405
0.487037
0.200847
0.35355
0.252339
0.339568
0.120924
0.325236
0.210711
0.788394
0.167531
0.785865
0.220833
0.534355
0.174459
0.479458
0.231558
0.779105
0.110675
0.77836
0.759666
0.321293
0.240873
0.273363
0.131303
0.476153
0.154467
0.530017
0.385288
0.370258
0.266671
0.336878
0.737769
0.332707
0.120811
0.736687
0.189516
0.297611
0.227736
0.515614
0.118386
0.735667
0.211002
0.345842
0.140762
0.324087
0.306222
0.717538
0.152853
0.292961
0.604999
0.528943
0.189449
0.506944
0.170025
0.60049
0.428807
0.410434
0.531035
0.405706
0.2414
0.513857
0.154483
0.422017
0.195161
0.497113
0.202928
0.393184
0.275629
0.485933
0.310248
0.356473
0.269031
0.469324
0.234705
0.377624
0.299552
0.444567
1.11916
0.138034
1.11458
0.137954
1.11226
0.128046
0.177693
0.222833
0.101643
0.165833
0.0959918
0.216729
1.11283
0.144608
0.157463
0.184456
1.10475
0.192374
0.120143
0.17528
0.132544
1.09775
1.097
0.139953
0.182258
0.178953
1.00811
0.137775
0.167553
0.19815
0.180987
0.234737
0.165287
0.203431
0.0773025
0.212415
0.147232
0.185592
1.00168
0.130374
0.266196
0.151062
0.0862716
0.192542
0.0984123
0.179578
0.155299
0.18907
0.647481
0.153421
0.112844
0.256058
0.0956076
0.180542
0.200853
0.250461
0.168276
0.229092
0.640975
0.163123
0.954428
0.154344
0.153992
0.229324
0.0905717
0.183697
