# vtk DataFile Version 3.0
Tree
ASCII
DATASET POLYDATA
POINTS 1582 float
162774 225274 273.8
162774 225274 10273.8
141774 225774 23773.8
134774 213034 31773.8
136874 216856 29373.8
138774 208774 53969.8
137596 213785 38720.2
117774 203858 49773.8
138420 210277 49395
156774 197774 66885.8
138668 209225 52597.4
131774 198014 74773.8
120908 203393 50303.8
107774 194006 60773.8
151118 200893 64107.4
151774 195942 80773.8
155077 198710 66052.2
169774 181774 67541.8
113561 197207 59491.8
108774 188042 83773.8
151577 197427 75773.8
169774 184774 92393.8
108735 193926 59979.8
93553.8 181774 59773.8
112269 191912 76759.8
121774 192774 94377.8
166405 183687 66752.2
174058 162774 64773.8
168763 182348 67305
177782 172774 82773.8
109823 189203 81669.4
92465.8 179774 80773.8
151715 196387 79273.8
143774 195998 103774
171703 167300 63627.8
171998 154774 52773.8
173351 164132 64430.2
179782 158774 76773.8
175906 174561 81817
181774 167074 105774
95624.6 180080 79615.8
81553.8 163774 70773.8
117467 192653 90787
114774 194062 112774
175281 162524 68133
179186 141774 68773.8
93413.4 179865 80426.2
84773.8 174774 93573.8
180443 165646 95229.8
183774 157078 101774
115582 193639 106178
128774 195998 116774
178771 158407 74869.4
183814 146774 84773.8
109089 188390 83142.6
99773.8 187222 97773.8
102429 188207 95923.4
100774 192002 112774
147715 196123 100134
148774 195998 118774
148915 196202 93875.8
161942 191774 107774
179268 145894 71088.6
183942 132774 77773.8
179210 143010 69468.2
176774 131322 55773.8
182373 159739 101340
183998 149774 118774
85478.6 164792 74163
79489.8 148774 72773.8
183429 154382 114072
183998 157774 128774
115186 194398 112350
114774 198006 133774
85986.6 174329 91104.2
76773.8 161774 101290
85137.8 174640 92833
84773.8 181774 108442
146948 196035 115841
137774 196022 133774
177712 132581 59164.6
178774 117774 53581.8
160931 190951 104167
173218 183774 110774
183753 150075 117872
183998 137774 126774
177055 131699 56791
177974 128774 42773.8
82045.8 150819 71785
81773.8 137774 67653.8
79537.8 165540 98234.2
77485.8 146774 93773.8
77603 162904 100373
78325.8 156774 111774
112406 196574 131322
108774 197774 146810
85676.6 180331 106900
87581.8 184774 120774
148226 196009 117894
163774 191230 129774
114063 197576 133038
126774 199782 142774
125064 198905 141685
139074 197774 153774
181151 167486 104887
179890 172774 119774
183632 140399 122958
181998 125774 121774
183888 138561 125629
179818 126774 136774
182341 134082 129864
180070 138774 147774
181425 138996 140380
182774 154774 149970
180061 137889 145715
175842 131774 155774
82687.4 138913 68085.8
87773.8 120750 62773.8
79264.6 148299 93801
81493.8 130774 88773.8
158052 192979 127608
161774 191774 144002
78109 158613 108353
79773.8 141774 109886
85612.2 131001 62803.8
88773.8 126226 53773.8
109528 195298 141685
103006 183774 157774
87010.2 183441 116612
87601.8 170774 135774
78260.6 157325 110748
82353.8 148774 121774
135109 198003 152470
137774 197230 167774
86795.4 175101 126554
83657.8 162774 128774
180575 128966 134701
175882 114774 131774
87971.4 184153 119998
92773.8 185958 132774
108433 191693 149401
114282 191774 165774
162284 190938 128389
173978 182774 127774
87108.6 124041 64186.6
89661.8 112774 72773.8
177290 119031 132652
177774 111562 119774
104019 184668 155653
99773.8 174890 158774
177107 133609 152756
169298 118774 151774
160657 192135 139083
150774 193998 148774
181890 149112 148546
179834 153774 163774
112527 191749 160862
122266 198774 163774
176221 132324 154869
166434 125774 165774
88335.4 126014 56094.2
93545.8 112774 47773.8
183465 159039 126694
183230 163774 136774
81911 133406 90743.8
88773.8 115774 93149.8
138881 196346 164557
144774 193190 173774
82340.6 145343 70083.4
85529.8 141774 53773.8
113755 191767 164300
113774 182774 174866
84410.6 127017 93077.8
86529.8 121774 102774
176574 111491 122775
174042 102774 115774
88691.8 117055 69510.6
94317.8 105774 64773.8
80552.6 145847 111014
89497.8 128774 121774
176642 117073 132248
168774 110774 141946
87607.4 170748 133527
89657.8 159774 142774
176903 114960 127318
170006 103774 128774
106755 189023 151777
96773.8 181774 147326
169412 127087 161397
163238 118774 161774
89042.6 163066 140000
94773.8 165774 151970
167062 126758 165229
161774 128774 175326
101277 176394 158911
102326 166774 165774
171407 107471 129524
162774 102218 137774
175956 131939 155502
171774 139578 171774
101676 172738 161519
108774 173774 171990
173864 103043 116334
170514 93773.8 109774
173183 139223 168237
173774 151774 177890
86884.2 122488 99304.6
95569.8 110774 107774
170470 185223 127958
177774 177994 141774
173644 150205 175407
173986 164774 178774
153739 193439 145867
155890 190774 158774
88575.8 117484 93357.8
95773.8 106306 94773.8
182339 154472 149724
181874 166774 151774
89489.8 118974 101845
90773.8 119774 113162
171907 139761 171516
169206 141774 178774
88373.4 133397 121691
95705.8 125774 133774
95630.6 107915 92989.8
101774 100290 91773.8
107557 172811 170673
113774 168890 182774
173301 159955 178855
169946 166774 187774
170128 104611 128457
165774 96281.8 123774
94901 112558 107837
100130 107774 114774
93982.6 106845 66052.6
102774 91669.8 64773.8
172411 97619.8 111060
173774 92773.8 98813.8
102829 167601 165405
107546 157774 173774
166047 96944.6 123592
161774 89129.8 117774
161439 191882 142526
169774 186514 149774
170538 94511.8 109590
163774 85033.8 103774
155073 191787 153869
163774 188038 156774
173735 151303 177145
167194 154774 193774
143500 193789 169558
153774 187774 171970
101095 101406 91262.2
108774 93557.8 85773.8
172706 93184.6 101695
168774 86361.8 95773.8
98561 109209 112693
107558 98773.8 109774
168514 152857 189424
164010 147774 194774
94295.8 128252 132079
99773.8 128774 144970
169797 166193 185926
162410 175774 191774
107220 159519 173623
111774 152774 182802
99659.4 108204 114149
104774 108774 125966
162825 187893 156460
173774 179774 160134
97150.6 101058 63988.2
99657.8 94773.8 53773.8
95282.6 126517 133265
98773.8 117774 129334
173355 92876.2 98967.8
175282 91773.8 87773.8
102515 93149 65121.8
111774 84129.8 68773.8
163418 86545.8 104515
154774 79601.8 99773.8
97692.2 128575 140071
95773.8 138774 146966
163335 173792 189775
154774 180098 188774
169135 87535.4 96392.6
163774 81585.8 88773.8
110086 153994 178571
113706 140774 180774
104513 107883 123449
112774 103510 130774
171103 181126 160211
175814 173774 167774
111267 153140 181533
115774 156774 190802
110365 85535 67227.8
119566 76773.8 64773.8
166669 84798.6 92887.8
170870 83773.8 82773.8
96349.4 135714 144897
101774 137774 157182
110443 104237 127666
116774 97773.8 126890
152680 188838 171033
165774 183774 169930
112620 144740 180113
111006 135774 171774
113380 141964 180575
118774 139774 189322
95946.6 137856 146345
92525.8 148774 145774
114422 155684 188021
120534 148774 197774
164933 82293.4 89003
163162 76773.8 77773.8
112075 103728 129841
116774 106774 141970
113608 141131 180714
119774 130774 182886
161846 185293 170261
166774 178774 177950
164426 77844.2 79837.8
168774 73773.8 70861.8
113860 104885 134450
122170 100774 137774
116481 98679.4 126616
124774 91773.8 124802
97074.2 131859 142291
91497.8 140774 137774
93551.8 145499 145945
88773.8 150774 137970
107448 158297 173729
106358 147774 170774
115524 107093 140711
115130 113774 151774
119521 102822 137761
128774 102774 147890
122711 93350.6 124050
130774 85773.8 114898
114441 110989 145571
108774 118218 147774
126373 103909 146889
130774 106774 155890
127642 89715.4 120528
137774 86325.8 121774
110128 117184 148019
107518 124774 153774
130798 86593.4 116294
138774 81773.8 110794
92833.8 147791 145825
95589.8 154774 153774
130781 86019.8 115317
128774 83633.8 104774
136760 82795 111032
139774 79773.8 101886
108301 122497 152047
113774 123774 163990
124155 92247 124576
133774 91773.8 131926
129736 83986.6 106080
131774 81553.8 93773.8
115501 113302 151219
119106 115774 159774
118476 115905 158872
122006 119774 168774
129305 106780 154563
128774 112342 163774
121931 119376 168544
125774 122774 179270
134669 213947 31493.8
128774 209998 35773.8
128980 210699 35244.2
122774 207990 38773.8
138041 211891 44484.6
148026 208774 48773.8
129505 207936 47817
127774 204774 57969.8
148744 204946 57355.8
152774 203774 58881.8
118704 201537 53060.2
121774 200774 61325.8
136599 205861 59250.2
142774 203946 65773.8
119365 202094 52233.4
110774 198774 51953.8
132729 201385 67398.6
123774 197990 69773.8
141358 203483 65086.2
144774 200102 70773.8
151439 198467 72274.2
161242 191774 76773.8
132592 198751 73509.4
135774 196774 79965.8
151525 197822 74443.8
144774 197986 78773.8
160199 191183 80602.6
166774 185974 78773.8
111849 192803 71959.4
106774 188066 75773.8
134310 197683 76995.8
127774 194006 84773.8
129221 195183 81631.4
121774 193218 81773.8
102173 188727 61832.6
98313.8 185774 66773.8
135335 197047 79075
136774 195894 91773.8
103551 185773 78965.8
99593.8 184774 73773.8
172161 177570 72319
174774 171958 72773.8
169156 184640 90790.2
175774 178802 96773.8
98821.4 185967 65184.6
92289.8 179774 67773.8
174324 176204 79187
173974 178774 86773.8
144956 196035 102682
135774 195998 101774
90927.4 174645 75551.4
87545.8 173774 69773.8
117701 193107 96340.6
122774 193998 100774
172213 162024 60410.2
174774 153774 61577.8
171978 164451 61890.6
169386 164774 51773.8
180881 166787 101217
177990 174774 104774
87930.6 173312 70633.8
83773.8 168794 64773.8
90058.6 177158 83778.2
83773.8 171206 83773.8
122098 194803 109168
127546 195774 107774
117065 193267 99291.8
109774 191774 101542
146212 196060 110194
139774 195998 114774
100539 183610 79212.6
95773.8 181998 89773.8
177523 151698 69097.4
176774 145774 64253.8
180929 168534 110431
182002 164774 115774
179479 158664 76202.6
181986 159774 85773.8
84770.6 171519 83775
78773.8 161966 83773.8
84448.6 160600 73449.8
80773.8 157774 66253.8
100570 187517 97218.6
92773.8 183786 96773.8
102193 190921 106593
106774 193774 110754
154886 193702 96877
159942 191774 95773.8
178424 134864 62451.8
179910 128774 62773.8
127757 195617 116300
[...]
CELL_DATA 1581
SCALARS radius float
LOOKUP_TABLE default
2.122e-314
100
100
1.15305
0.148108
1.15223
0.873271
0.951735
0.296492
0.861002
0.0609605
0.29563
0.94976
0.104897
0.788935
0.525113
0.0678048
0.788768
0.217174
0.943676
0.506429
0.212986
0.0625507
0.215431
0.83907
0.627048
0.735987
0.450671
0.0604476
0.735851
0.231022
0.833191
0.0649975
0.506072
0.431031
0.225408
0.0692637
0.430434
0.730648
0.104735
0.776175
0.474874
0.0901371
0.624484
0.357452
0.324202
0.0591843
0.776061
0.717413
0.259497
0.236231
0.611359
0.28181
0.221049
0.0548761
0.229985
0.176595
0.18812
0.155015
0.475433
0.480864
0.250448
0.319239
0.219663
0.0766352
0.31776
0.0818887
0.717057
0.46747
0.125037
0.707024
0.22975
0.0554813
0.610139
0.42069
0.716478
0.0580676
0.420321
0.440101
0.245567
0.15615
0.298364
0.101327
0.217453
0.706195
0.107476
0.0826378
0.296236
0.0880619
0.457448
0.488902
0.62362
0.070881
0.487475
0.422612
0.532084
0.0795679
0.411861
0.0663925
0.439597
0.0660455
0.422073
0.0832037
0.413491
0.0694554
0.250545
0.698199
0.216008
0.112245
0.697231
0.583277
0.518067
0.383945
0.521513
0.0865419
0.515098
0.0751509
0.445461
0.0790266
0.618619
0.232932
0.401999
0.19982
0.471646
0.213262
0.423254
0.161758
0.523307
0.254653
0.367501
0.0691309
0.197022
0.105182
0.384968
0.347503
0.168784
0.512205
0.167109
0.188639
0.214006
0.276545
0.494924
0.212565
0.144764
0.415719
0.137662
0.156357
0.507301
0.488145
0.139859
0.49822
0.222515
0.222624
0.377814
0.265606
0.299973
0.250882
0.174989
0.360364
0.425196
0.0997264
0.190454
0.136657
0.203036
0.615027
0.151256
0.146647
0.37774
0.446173
0.190422
0.0875474
0.247277
0.590179
0.30027
0.138785
0.46334
0.400476
0.196753
0.134605
0.466521
0.0935193
0.144299
0.248442
0.29266
0.467454
0.305139
0.491942
0.129631
0.305028
0.264083
0.176624
0.208818
0.151806
0.291941
0.0870054
0.487222
0.283141
0.178759
0.0563978
0.424865
0.251149
0.461078
0.0703879
0.460457
0.408165
0.189402
0.0942877
0.589376
0.171985
0.165309
0.288367
0.353089
0.21507
0.349252
0.083143
0.293831
0.0698771
0.263984
0.127893
0.581599
0.0673553
0.186519
0.105994
0.453561
0.100648
0.283616
0.0992647
0.24587
0.139317
0.340051
0.079933
0.281002
0.575939
0.178498
0.373521
0.211869
0.298219
0.405266
0.446123
0.209779
0.214851
0.207433
0.204448
0.135502
0.0795369
0.296321
0.125801
0.335036
0.0853992
0.285849
0.320384
0.265967
0.0976978
0.266372
0.34167
0.298791
0.571171
0.167573
0.166784
0.191895
0.204339
0.427323
0.123866
0.322502
0.439466
0.157622
0.0715481
0.570797
0.0913448
0.332758
0.3552
0.193973
0.18226
0.135315
0.0748214
0.28553
0.202987
0.331565
0.116032
0.280483
0.414095
0.191514
0.162261
0.284475
0.10198
0.338615
0.323017
0.371256
0.0975562
0.567215
0.201947
0.280086
0.094339
0.320312
0.133445
0.309201
0.18037
0.320616
0.321878
0.32459
0.496243
0.392113
0.304901
0.165598
0.316932
0.268404
0.169811
0.29977
0.0898877
0.319524
0.126648
0.290426
0.114351
0.315692
0.493151
0.131432
0.0747813
0.29821
0.198668
0.273702
0.229686
0.229623
0.416931
0.362049
0.0825121
0.377505
0.407256
0.151256
0.257219
0.249887
0.0716332
0.152528
0.0987268
0.415078
0.234247
0.325868
0.363008
0.181338
0.306803
0.339242
0.126487
0.311027
0.324095
0.239821
0.289097
0.167706
0.254339
0.239899
0.165259
0.232109
0.0858275
0.251039
0.15036
0.218329
0.212702
0.244068
0.0885117
0.174017
0.141351
0.235112
0.328484
0.153232
0.311447
0.173621
0.132967
0.258471
0.111986
0.251743
0.0575927
0.145146
0.0716737
0.122235
0.0994094
0.872841
0.950431
0.137625
0.0805184
0.860146
0.947495
0.121272
0.278797
0.160919
0.948156
0.163016
0.160668
0.255211
0.117432
0.120539
0.107687
0.523599
0.0770097
0.247332
0.518687
0.158762
0.108189
0.203242
0.942521
0.120989
0.174167
0.214338
0.138296
0.155841
0.184294
0.143168
0.0757958
0.169244
0.832007
0.122746
0.73198
0.14054
0.0890921
0.197367
0.164835
0.12121
0.731364
0.0996357
0.0756641
0.148757
0.470433
0.13114
0.0955314
0.623738
0.112231
0.204688
0.215368
0.113527
0.252312
0.112179
0.0730058
0.123117
0.287191
0.762347
0.222003
0.13087
0.622897
0.0993617
0.464238
0.134595
0.831403
0.107817
0.350703
0.136413
0.222803
0.167116
0.060979
0.280855
0.276462
0.136743
0.458533
0.179126
0.155544
0.12037
0.127548
0.166098
0.152316
0.230053
0.311989
0.119736
0.208543
0.123244
0.71437
0.147933
0.0853658
0.278202
0.503791
0.120395
0.114599
0.196303
0.710975
0.172946
0.0715587
0.274854
0.265679
0.140585
0.208757
0.166655
0.155361
0.125941
0.119379
0.182169
0.118809
0.415434
0.71502
0.146318
0.244053
0.225457
0.467979
0.170719
0.169801
0.42898
0.0956047
0.168136
0.149744
0.179047
0.206271
0.202945
0.105738
0.206189
0.0719899
0.199973
0.175746
0.208837
0.251624
0.141309
0.483311
0.14331
0.215374
0.181115
0.187192
0.165108
0.619049
0.164155
0.705024
0.120514
0.0835657
0.162767
0.357603
0.221509
0.123369
0.212403
0.528409
0.145802
0.107309
0.196096
0.515911
0.165367
0.123873
0.13613
0.140542
0.168272
0.0539607
0.187156
0.111625
0.172854
0.107967
0.364369
0.113749
0.125755
0.104557
0.125071
0.170202
0.16951
0.0958612
0.19881
0.0829869
0.154123
0.0793058
0.12472
0.216519
0.389816
0.116561
0.143155
0.0676782
0.163324
0.103537
0.159461
0.148423
0.148725
0.073162
0.246309
0.139058
0.195408
0.199164
0.121627
0.0689402
0.134036
0.116933
0.29393
0.117075
0.140134
0.394986
0.137608
0.296033
0.104154
0.0606257
0.134816
0.11605
0.464115
0.512596
0.125613
0.244496
0.218633
0.131576
0.284864
0.0999054
0.240704
0.143502
0.272168
0.107964
0.209479
0.0973103
0.181544
0.10471
0.151548
0.150013
0.25604
0.484687
0.121551
0.0606216
0.146638
0.140803
0.220342
0.28778
0.11536
0.17297
0.131742
0.0687415
0.146954
0.0881222
0.190675
0.0686109
0.139433
0.224708
0.175859
0.101382
0.212942
0.194872
0.208714
0.455483
0.176253
0.340847
0.144261
0.42133
0.12382
0.442362
0.188918
0.201989
0.202648
0.106948
0.216324
0.0572226
0.20835
0.215583
0.203094
0.15858
0.119334
0.4532
0.130141
0.0947656
0.166603
0.456749
0.132746
0.253583
0.204686
0.41461
0.142467
0.0641771
0.154996
0.144375
0.151533
0.142373
0.150083
0.270683
0.143917
0.0830606
0.211392
0.328481
0.157118
0.159461
0.180318
0.103927
0.177792
0.133834
0.19174
0.227055
0.226701
0.143592
0.177959
0.1866
0.214064
0.184364
0.131601
0.0795295
0.198833
0.266104
0.149557
0.31144
0.18793
0.160128
0.245489
0.0662846
0.205152
0.185055
0.223338
0.113812
0.160645
0.129999
0.232681
0.056724
0.200486
0.259512
0.16617
0.0865526
0.157309
0.568176
0.13662
0.139215
0.214718
0.105401
0.191883
0.204853
0.184366
0.148942
0.309196
0.216125
0.234688
0.131649
0.155675
0.116945
0.243605
0.229244
0.203733
0.298242
0.144731
0.29848
0.196666
0.137657
0.227971
0.207207
0.23559
0.289347
0.193433
0.378815
0.180987
0.281206
0.163301
0.180311
0.237956
0.147385
0.277179
0.212592
0.226935
0.171608
0.277918
0.144499
0.242016
0.209559
0.235339
0.188616
0.207186
0.105503
0.168147
0.0753035
0.206266
0.0916695
0.229471
0.311616
0.155814
0.408007
0.153161
0.0850108
0.1698
0.269705
0.218764
0.14821
0.155619
0.185611
0.201196
0.0907273
0.194848
0.168515
0.162866
0.136053
0.186875
0.136803
0.211961
0.173284
0.292429
0.168165
0.232154
1.1518
0.119541
0.0783434
0.107069
0.951392
0.0799421
0.950186
0.0871783
0.860381
0.0875835
0.0606682
0.0976426
0.0645932
0.114008
0.0875401
0.103623
0.13933
0.117621
0.112854
0.139422
0.110853
0.110318
0.0620198
0.135205
0.788481
0.0812223
0.209492
0.092996
0.0890729
0.943412
0.185951
0.150621
0.116463
0.134294
0.0852163
0.104838
0.733703
0.151531
0.0815013
0.148025
0.0547599
0.135314
0.832897
0.084898
0.101494
0.120055
0.11486
0.143635
0.502519
0.0988353
0.0554678
0.115971
0.11733
0.625675
0.1179
0.729176
0.0715737
0.108355
0.0691828
0.108691
0.104646
0.108924
0.166126
0.158623
0.0626649
0.163099
0.0554043
0.133642
0.117019
0.143904
0.13185
0.138962
0.115999
0.188248
0.114873
0.146611
0.0941296
0.132332
0.0663252
0.127958
0.101004
0.139809
0.610292
0.106078
0.060158
0.118268
0.0957315
0.0953824
0.197866
0.115901
0.0821534
0.143892
0.054631
0.116496
0.158556
0.181755
0.0840382
0.129764
0.12132
0.125238
0.0566234
0.201465
0.426539
0.110257
0.169661
0.148781
0.0496997
0.10381
0.139809
0.196174
0.609226
0.100591
0.257807
0.15367
0.0980887
0.138991
0.1479
0.168235
0.0728442
0.143762
0.0660034
0.104055
0.412848
0.109987
0.440582
0.142158
0.13449
0.189319
0.209675
0.118178
0.0784041
0.162356
0.128308
0.133674
0.0820214
0.153187
0.618062
0.0861569
0.124538
0.163318
0.184571
0.135325
0.0832951
0.13945
0.404425
0.139075
0.0716689
0.185832
0.696227
0.113481
0.0864048
0.154209
0.0773232
0.164706
0.103995
0.186848
0.0893272
0.125512
0.420691
0.111037
0.410919
0.109443
0.360299
0.117033
0.0824719
0.139937
0.0910772
0.189399
0.343134
0.116053
0.221871
0.106426
0.13874
0.128821
0.138798
0.173071
0.134549
0.163346
0.0582408
0.121445
0.0992893
0.129562
0.0817204
0.127303
0.0906801
0.16434
0.238047
0.117705
0.140569
0.201979
0.37456
0.111377
0.141195
0.154785
0.254542
0.124398
0.164296
0.168185
0.0786427
0.133635
0.102947
0.155769
0.168062
0.129294
0.254906
0.131061
0.123531
0.16003
0.461004
0.11439
0.144541
0.196747
0.0940811
0.194932
0.219915
0.149035
0.149947
0.132777
0.0706878
0.209213
0.0944641
0.187237
0.583653
0.180761
0.103745
0.186619
0.095438
0.165941
0.0810893
0.146979
0.142286
0.144635
0.117477
0.152603
0.0800666
0.133277
0.115661
0.169504
0.0783507
0.136524
0.0473489
0.12967
0.347674
0.125875
0.153876
0.181836
0.114589
0.180653
0.128818
0.168624
0.144433
0.17445
0.0862002
0.203693
0.127684
0.116455
0.157944
0.166736
0.106368
0.174599
0.144807
0.175602
0.111866
0.158189
0.0480017
0.1654
0.119933
0.188068
0.0494114
0.11644
0.372533
0.130026
0.0916328
0.165744
0.286951
0.133718
0.158572
0.149047
0.130172
0.196639
0.0622256
0.130779
0.152807
0.200688
0.0691398
0.129215
0.111574
0.114539
0.287233
0.143861
0.091965
0.176399
0.1445
0.119076
0.146777
0.176219
0.117746
0.171052
0.131286
0.177559
0.0904878
0.194358
0.301083
0.184194
0.146827
0.271953
0.317274
0.165254
0.0794096
0.148396
0.141304
0.202621
0.252276
0.159498
0.11399
0.187363
0.154052
0.20321
0.0984367
0.201681
0.101383
0.192751
0.192106
0.282192
0.141335
0.168491
0.0654768
0.125775
0.133161
0.220458
0.112633
0.191544
0.152459
0.266503
0.187981
0.230743
0.100965
0.231736
0.165788
0.212669
0.117859
0.218768
0.258095
0.162278
0.186071
0.187501
0.145812
0.210629
0.10845
0.218359
0.157754
0.177549
0.102526
0.1525
0.140593
0.182862
0.0797217
0.158828
0.091523
0.158078
0.15001
0.187423
0.155037
0.188923
0.215151
0.15651
0.151241
0.208357
0.317849
0.135577
0.0638175
0.159986
0.0704277
0.148103
0.0866602
0.166104
0.258923
0.197026
0.95158
0.0750314
0.129952
0.0952186
0.872566
0.0856923
0.0887035
0.124047
0.0854356
0.108723
0.860683
0.0891915
0.274882
0.0965577
0.859905
0.0811687
0.149938
0.0926827
0.0871124
0.0988606
0.0532744
0.106011
0.249796
0.101178
0.943185
0.0845589
0.0737394
0.144483
0.138239
0.0942661
0.0718133
0.10654
0.120015
0.106439
0.145069
0.121527
0.0888345
0.119836
0.063928
0.13038
0.0675645
0.113764
0.62511
0.0872293
0.132417
0.175076
0.0757036
0.11228
0.10345
0.129757
0.730202
0.0893465
0.099017
0.163809
0.0646141
0.0957965
0.728556
0.0996028
0.473805
0.0896914
0.108911
0.107624
0.321341
0.096343
0.775698
0.0868449
0.0871623
0.116452
0.105623
0.146749
0.100517
0.143832
0.0948382
0.112902
0.201914
0.136961
0.0802581
0.112869
0.105648
0.154731
0.761885
0.0930088
0.0705539
0.130412
0.239433
0.102671
0.210321
0.109015
0.128587
0.165643
0.224553
0.0948223
0.418648
0.0959332
0.09654
0.153899
0.437671
0.103584
0.177866
0.124667
0.0862528
0.137431
0.0718502
0.117607
0.487974
0.0872663
0.0691163
0.131338
0.081925
0.134432
0.160655
0.100871
0.104952
0.125497
0.0696584
0.135425
0.143749
0.145417
0.622873
0.0955018
0.119828
0.123292
0.0976639
0.165055
0.1375
0.146437
0.420143
0.100883
0.0737471
0.142478
0.0770885
0.130556
0.470227
0.0981004
0.409834
0.100864
0.122728
0.103061
0.0805463
0.125995
0.163797
0.173114
0.0975308
0.17115
0.131697
0.189675
0.205978
0.110243
0.148899
0.106879
0.522177
0.0974914
0.387568
0.100622
1.09859
0.0955337
1.09834
0.146956
0.77305
0.765781
0.195869
0.949118
0.776126
0.249539
0.756845
0.947131
0.174999
0.702705
0.436462
0.193165
0.944445
0.0935906
0.702151
0.129331
0.420616
0.106746
0.941763
0.1313
0.403148
0.235176
0.688533
0.937759
0.219729
0.20121
0.680359
0.929466
0.278867
0.150923
0.35183
0.104143
0.676661
0.227802
0.316583
0.911972
0.354345
0.157635
0.670276
0.0934318
0.911645
0.906158
0.238681
0.0957896
0.275047
0.553503
0.831307
0.133311
0.34794
0.233094
0.30884
0.162681
0.667066
0.0878939
0.23464
0.103945
0.552279
0.149373
0.210533
0.825649
0.226695
0.149915
0.259319
0.12308
0.302182
0.536608
0.240647
0.105014
0.535264
0.123783
0.665643
0.197783
0.65977
0.175767
0.228995
0.130803
0.824554
0.808089
0.320485
0.138666
0.217238
0.136075
0.22517
0.136011
0.532321
0.163327
0.285358
0.120886
0.214603
0.105719
0.658864
0.642904
0.272728
0.117462
0.80726
0.614026
0.324672
0.127054
0.313685
0.133421
0.529512
0.212819
0.276884
0.188338
0.608061
0.141268
0.805816
0.155911
0.259314
0.436564
0.760616
0.164022
0.498641
0.171085
0.248135
0.142092
0.315335
0.468541
0.276438
0.111399
0.434133
0.222961
0.272666
0.125138
0.60629
0.131378
0.759307
0.203385
0.418712
0.504488
0.271757
0.150178
0.757344
0.267386
0.437503
0.160995
0.256885
0.157546
0.252819
0.176964
0.427631
0.279281
0.585855
0.0970082
0.275323
0.173844
0.754278
0.132164
0.414276
0.228041
0.389829
0.203415
0.345451
0.165098
0.581452
0.166747
0.379382
0.20759
0.749
0.124798
0.747843
0.541711
0.637661
0.367521
0.305665
0.24524
0.56653
0.17214
0.367181
0.268969
0.31088
0.159925
0.537024
0.112613
0.636488
0.221764
0.524111
0.496111
0.279622
0.175259
0.488711
0.210675
0.556648
0.152816
0.633538
0.376711
0.585605
0.133156
0.269171
0.147913
0.368951
0.191939
0.548934
0.258611
0.46327
0.199376
0.577798
0.252119
0.324588
0.264637
0.558667
0.172512
0.55313
0.21804
0.446576
0.247395
0.531646
0.379325
0.485802
0.207196
0.357485
0.271491
0.455713
0.219743
0.428086
0.276738
0.505375
0.26358
0.424191
1.09765
0.135634
0.774817
0.133191
0.770029
0.130563
0.158128
0.152699
0.117721
0.240481
0.147333
0.22042
0.771278
0.146911
0.153837
0.191915
0.754865
0.150275
0.114369
0.156911
0.145876
0.160095
0.145677
0.430984
0.424653
0.151492
0.94222
0.181091
0.100703
0.170052
0.144186
0.215512
0.15758
0.182682
0.407738
0.187842
0.686175
0.149508
0.191136
0.388285
0.69756
0.188955
0.101892
0.212168
0.110566
0.175384
0.0940356
0.205823
0.12457
0.183838
0.677482
0.158446
0.360854
0.226053
0.67317
0.168345
