# vtk DataFile Version 3.0
Tree
ASCII
DATASET POLYDATA
POINTS 1582 float
162774 225274 273.8
162774 225274 10273.8
141774 225774 23773.8
134774 213894 30773.8
136874 217458 28673.8
144774 208774 53889.8
141140 212769 42290.6
121774 202010 58773.8
145053 208515 52701.8
153774 199222 67773.8
147669 205727 57223.4
134774 198774 73969.8
123491 203002 53499
105774 193258 58773.8
115341 198520 55925.4
112774 191774 76805.8
153429 199655 67585
163082 189774 86773.8
153670 199352 67717.4
170050 179774 68773.8
107097 193379 59264.6
96773.8 183974 67773.8
136100 199630 73316.2
124774 193886 90773.8
164978 186346 70590.6
174774 177774 84393.8
130890 196988 81346.6
140774 195998 99773.8
168293 180326 69140.6
175978 159774 64773.8
172585 179528 83240.2
178034 173774 102774
98673.4 185277 64375.8
84533.8 169774 64773.8
172560 166127 64174.2
170774 153774 49573.8
97343.8 184365 66754.2
89773.8 177290 87773.8
125515 194988 90274.2
114774 194002 110774
92044.6 179412 81467.8
81569.8 166774 81773.8
174804 161334 65867.8
180046 147774 74773.8
117129 193359 98694.2
104774 190018 102774
176377 157266 68539.8
181986 159774 85773.8
177366 173269 98479.8
183774 159074 109774
115669 193758 106183
129774 195998 117774
159872 192762 83973
158774 192062 103774
178945 150621 72903.4
180002 129774 64773.8
179715 148628 74212.6
183998 145774 88773.8
84952.6 169237 80126.6
79545.8 152774 70773.8
82584.6 167513 81279.8
77773.8 168774 98749.8
90455 177927 85882.2
87773.8 182774 104366
115042 193929 109397
115774 198002 129774
157514 193325 100797
153018 195774 115774
127365 195393 116745
139774 196002 132774
181563 163860 108481
183998 157774 128774
179099 134205 63735.4
177986 121774 51773.8
158396 192441 102881
170774 185974 111774
183111 160510 109386
183998 142774 117774
81899.8 154371 72366.6
81773.8 139662 65773.8
81874.2 166995 81625.4
75549.8 150774 90773.8
108118 191439 102886
97773.8 191814 113774
77447 155640 88029.4
77549.8 153774 106774
87107.4 179823 101085
82329.8 177774 113774
114674 197520 128803
112474 199774 143774
155037 194848 113550
158774 193886 128774
115444 197857 129483
127774 198050 140774
136923 195801 132404
143774 195982 149774
168805 185467 110888
177890 176774 118774
178320 125503 55362.2
185774 128774 37257.8
183487 144529 115090
183186 128774 117774
183845 143301 116969
180774 136226 143774
182248 137255 127938
180774 127774 133170
181452 136699 136489
183986 152774 146774
76119 152234 89950.6
79661.8 134774 83773.8
82366.6 141549 67693.8
85765.8 124774 66773.8
77502.6 154632 98151.4
79773.8 138774 104894
84624.2 178071 111599
86773.8 174774 129958
180311 135768 142932
175774 131774 155970
101114 191603 112623
95773.8 191242 132774
78091 153094 105156
81533.8 146774 116774
140944 196210 147044
136774 197962 163774
112482 197125 139389
105774 187774 158438
111514 194502 149980
114774 195774 160886
84746.2 129806 67049.8
89545.8 122774 53773.8
142925 196050 148955
157774 192054 144774
85441 176818 118575
82161.8 164774 123774
180591 129272 131283
175786 114774 132774
172257 182164 113885
173258 183774 125774
79281 138045 86561.4
83773.8 124466 91773.8
182663 161961 122840
182014 165774 130774
85805.8 125660 67474.6
89765.8 112774 70773.8
177996 121443 132088
177846 111774 119774
87092.2 175326 128679
91617.8 174774 142774
177861 133611 149972
170774 120310 151774
86869.4 174939 129574
86325.8 162774 135774
175584 131724 154343
168006 125774 162774
106763 187911 156538
101774 175774 161182
182518 147288 145554
179834 153774 163774
113679 194209 158593
115106 187774 171774
88808.6 123133 56798.2
93537.8 111774 49773.8
138600 197106 160937
141774 195226 175774
81951.8 140228 66349.8
86521.8 140774 49773.8
176449 116775 132568
170030 112774 141774
90984.2 117907 53567
93773.8 106466 60773.8
177439 112009 120405
176774 105658 112774
83640.6 126495 90086.6
91485.8 112774 89773.8
80917.4 147112 112198
87705.8 129774 119774
174010 115254 136066
168774 105666 134774
83733.8 125075 91267.8
85773.8 123774 104050
173368 182919 124104
175974 180774 136774
175717 131759 155482
174542 139774 165774
102954 176577 159862
100286 164774 161774
169599 127800 161782
164774 128774 171946
81587.4 147506 115980
84161.8 150774 127774
170697 108477 134106
169418 101774 126774
91257.8 175790 140088
97773.8 180970 150774
168484 126382 162476
161774 117542 160774
90461 114097 70608.6
96773.8 102774 73953.8
113746 188631 166386
109774 174130 173774
179061 151138 161303
174006 151774 175774
112476 198979 142459
121774 200002 150774
173863 137335 164720
170774 140226 173774
85161.8 124164 100215
95549.8 110774 106774
143519 196002 149528
153774 191774 159890
176973 107563 115063
169774 92773.8 110882
175522 151583 171433
173986 164774 178774
175192 181417 132973
169774 187254 142774
182810 151779 146334
181774 168790 148774
91363.4 113691 90689
97773.8 104290 92773.8
174813 103126 113809
175958 99773.8 104774
94879.8 106171 72950.2
99569.8 96773.8 64773.8
165304 129225 170858
159774 131774 182582
86862.6 134175 119625
94773.8 127774 133322
174092 151272 175027
169962 148774 183774
101086 168315 161200
106186 160774 171774
173362 161113 178665
170002 166774 186774
111406 177015 173121
113774 166774 183362
170715 94729 110421
166774 86773.8 101950
87894.6 130619 119278
92125.8 119774 116774
169113 102526 128053
164774 94217.8 121774
94799.4 112587 107384
101774 105774 114574
91509.8 175079 141968
93553.8 163774 149774
170821 148528 180879
165774 140774 184966
153443 192993 147497
163966 188774 153774
97235.4 105636 92071
106290 95773.8 91773.8
140314 196091 168949
150774 188774 171962
99451 97821 67390.2
104506 89773.8 64773.8
180507 165582 149953
176066 176774 155774
170219 148700 182905
165774 153462 195774
93362.2 130331 131585
98773.8 129590 142774
175546 99839 105673
175222 93773.8 93773.8
99123.4 108363 111841
105774 98773.8 107130
106059 161227 171190
111562 153774 181774
169933 166505 185144
163034 175774 190774
168774 106166 134293
161774 98997.8 133774
100979 106551 113754
103774 108774 125134
103573 98732.6 91863
108390 91773.8 81773.8
167817 88479.4 102371
165994 83773.8 93773.8
99534.2 97087.8 65558.6
99773.8 94465.8 52773.8
167087 87285.4 102076
155886 79773.8 99773.8
175713 174733 156140
171314 181774 161774
101535 106007 114328
110282 99773.8 119774
174313 93452.6 95236.6
172774 87665.8 86773.8
104006 91610.2 66109.4
113570 82773.8 67773.8
162339 84485.8 102409
154774 81773.8 108890
96879.8 131079 140118
98773.8 138378 151774
106730 102924 118832
111774 103130 129774
109496 155159 177083
113706 140774 180774
163460 173597 189814
152774 178102 194774
111505 153559 181252
116318 148774 189774
177151 171987 154284
176774 171958 164774
113333 151740 184490
117030 157774 191774
94921 128022 132839
101774 118774 137194
171866 180068 161373
166774 183170 169774
112526 83763.4 66681.4
120774 76209.8 65773.8
173469 88683.4 87728.2
174774 83773.8 77269.8
112443 145089 179667
110774 135774 171326
97902.6 135021 146412
93497.8 148774 146774
174069 86425 82917.4
164774 77773.8 78865.8
113327 142069 180442
119774 136774 188970
99178.6 136990 150868
104342 138774 161774
109943 100568 120097
118774 95773.8 124974
111586 103508 128757
118310 104774 141774
168447 80241.8 79208.2
167774 73773.8 71181.8
116351 148875 189467
122310 143774 197774
116077 138918 183071
120534 129774 182774
112058 137886 174308
115774 127570 171774
95171.4 143547 146636
88773.8 147774 137290
167589 181997 168931
162774 180774 179954
116139 105272 139037
115774 110774 147326
103112 139552 159809
105514 147774 168774
116803 96579.4 122539
126774 89541.8 119774
117659 104923 140953
127578 99773.8 141774
91412.2 131484 127997
91773.8 137774 137934
115971 107803 142850
108374 114774 143774
120635 103379 141199
128774 105774 152970
125823 90458.6 119030
134774 84773.8 113958
111641 112616 144497
108374 120774 151774
126489 89817 119551
135774 87533.8 122774
109331 120413 151601
107774 127102 157774
126156 105931 150604
125774 111518 158774
130645 86938.2 114739
132774 82773.8 103958
93849.4 164247 149581
96361.8 155774 155774
108739 122955 153947
113774 122774 162890
130017 88949.4 120775
132774 91773.8 130966
132373 83759.4 104836
133774 81533.8 94773.8
125950 108948 155016
117666 114774 156774
113534 122205 161019
121774 118358 166774
120083 119735 166340
125590 120774 174774
121267 118771 166644
131774 113774 168030
137452 215413 33764.2
132774 211898 38773.8
134925 213515 36469.4
125774 209406 32773.8
129984 211296 34473.8
123774 208010 40773.8
135483 209432 47347.4
134774 207774 56793.8
144624 209723 48927.8
151774 206510 51773.8
123801 207935 40437.8
116774 203986 46773.8
122701 202545 55925.4
129774 202774 63293.8
139823 203626 63787.4
134774 203774 64805.8
151881 202225 60984.2
157774 198426 61773.8
116622 199647 54689
108774 197930 51773.8
135172 199031 73773.8
125774 197846 71773.8
151971 200700 65613.4
147774 199222 73773.8
116664 195950 67049
119774 195774 71969.8
160091 192881 77360.6
163254 189774 79773.8
114189 193958 70344.6
106486 189774 71773.8
129345 198296 72533.8
124774 194774 77957.8
154996 197202 72351
151774 195194 82773.8
106171 193294 58921
99573.8 188774 54773.8
112596 191841 76037
108774 188042 83773.8
151524 195849 80379.8
143774 196002 85773.8
162895 190120 86580.2
169774 184774 92393.8
110838 190093 79595.8
101774 185242 78773.8
169523 179939 68883.8
173774 175774 73497.8
97849 184712 65850.6
100774 185954 71773.8
125115 194393 90544.2
117610 191774 85773.8
170858 173739 67771
175946 168774 71773.8
120405 193698 94359
114774 190774 93589.8
174109 177829 83858.6
177994 171774 84773.8
108911 188505 83625.8
105774 187394 90773.8
137282 196235 97031.4
136774 195998 105774
175626 160242 65102.2
175886 152774 62773.8
90605.4 177190 67986.6
86533.8 173774 72773.8
122755 194291 92480.2
124774 194002 103774
140391 196081 99653.8
146774 195998 105774
137471 196062 104253
140774 195998 111774
179110 170313 104322
179998 170774 110774
85758.6 170936 66061.4
81573.8 163774 67773.8
89978.2 177481 87206.2
84773.8 173890 90773.8
106715 187727 88629.4
[...]
CELL_DATA 1581
SCALARS radius float
LOOKUP_TABLE default
2.122e-314
100
100
1.15572
0.078413
1.1556
0.9807
0.837926
0.0577729
0.980359
0.710194
0.835878
0.136975
0.834673
0.309559
0.819798
0.804669
0.391108
0.0362051
0.804645
0.121695
0.818688
0.176291
0.70586
0.455494
0.751896
0.691395
0.274017
0.107904
0.451836
0.151019
0.749491
0.813893
0.206507
0.225404
0.426753
0.0609972
0.813372
0.110434
0.689943
0.415139
0.775342
0.416571
0.166051
0.669728
0.291843
0.390778
0.232778
0.0866975
0.748691
0.577286
0.476237
0.355471
0.181193
0.300898
0.318901
0.232812
0.244546
0.718735
0.453655
0.712474
0.212668
0.111591
0.412434
0.109177
0.575981
0.323856
0.22206
0.0819026
0.474291
0.736347
0.245984
0.109577
0.314529
0.0669761
0.322899
0.069765
0.736138
0.0856158
0.439665
0.0484376
0.7124
0.197303
0.252333
0.633949
0.474412
0.126911
0.404655
0.238764
0.559654
0.153985
0.193977
0.148412
0.217876
0.204932
0.452941
0.0896991
0.287615
0.270993
0.223836
0.728761
0.215937
0.0635798
0.728599
0.615896
0.531424
0.546859
0.412296
0.630323
0.163206
0.176507
0.424839
0.464199
0.159468
0.0895531
0.379034
0.0704061
0.409643
0.233697
0.135465
0.461137
0.125277
0.324837
0.385547
0.546878
0.189224
0.494374
0.349606
0.388131
0.256486
0.179406
0.305464
0.35393
0.20496
0.527398
0.13486
0.134071
0.277556
0.092944
0.627967
0.124832
0.201877
0.0738393
0.387238
0.342966
0.473787
0.182543
0.336941
0.361759
0.268839
0.0611159
0.180231
0.276726
0.296827
0.168886
0.483288
0.399995
0.445607
0.324284
0.195541
0.224866
0.152676
0.155823
0.360305
0.0658366
0.173399
0.0860939
0.341148
0.172194
0.184345
0.471173
0.12052
0.597903
0.315297
0.439754
0.235244
0.121509
0.330645
0.0628516
0.597672
0.203598
0.234787
0.0636333
0.2756
0.0876445
0.477312
0.206083
0.251045
0.121305
0.214427
0.275107
0.236542
0.315537
0.189795
0.0827884
0.20153
0.0851026
0.382228
0.1186
0.318908
0.104842
0.413427
0.0782904
0.184646
0.11303
0.249429
0.095594
0.596855
0.0591536
0.177236
0.0987118
0.469724
0.289549
0.354608
0.143286
0.191798
0.0806916
0.398897
0.284575
0.164313
0.381938
0.363233
0.115313
0.3701
0.18929
0.174281
0.191131
0.418961
0.0818843
0.287349
0.106533
0.470026
0.122908
0.349616
0.20164
0.278897
0.100985
0.350055
0.0786252
0.186589
0.156381
0.257112
0.0849974
0.592992
0.0799801
0.313815
0.164945
0.234107
0.160974
0.282893
0.27237
0.141613
0.187561
0.329126
0.286051
0.301064
0.380323
0.190415
0.0941892
0.228911
0.273957
0.344122
0.0807288
0.380732
0.586682
0.169584
0.0764144
0.459206
0.111017
0.328108
0.142923
0.217686
0.136055
0.584233
0.132827
0.24582
0.281515
0.274062
0.0874263
0.283302
0.0826542
0.279119
0.316706
0.254349
0.0589105
0.584033
0.101783
0.378292
0.11924
0.294695
0.181597
0.250702
0.117021
0.332923
0.390897
0.518607
0.334075
0.385146
0.219181
0.25825
0.0788161
0.332606
0.363982
0.189368
0.169385
0.317266
0.0720444
0.226984
0.300207
0.167634
0.134749
0.265175
0.107546
0.360263
0.296094
0.304693
0.293002
0.227317
0.3031
0.26643
0.107625
0.291276
0.23964
0.225011
0.0754672
0.389957
0.0804682
0.513655
0.174186
0.265304
0.187358
0.278436
0.175898
0.268098
0.19849
0.273538
0.16113
0.196288
0.122071
0.277235
0.372919
0.437363
0.146473
0.219803
0.108848
0.38711
0.0854528
0.371418
0.39432
0.179181
0.128839
0.433604
0.33376
0.193399
0.260927
0.336976
0.124303
0.430172
0.0746378
0.258875
0.415966
0.161239
0.291846
0.184527
0.23556
0.282379
0.175186
0.227519
0.390212
0.232437
0.153605
0.239424
0.133053
0.220464
0.156201
0.276096
0.125372
0.38585
0.316726
0.295002
0.109853
0.312258
0.218297
1.15283
0.0763599
0.215138
0.087825
0.210144
0.835901
0.14734
0.980426
0.0925444
0.138637
0.187724
0.0776149
0.128107
0.08408
0.709801
0.0902958
0.835527
0.834254
0.0956136
0.0490174
0.175019
0.834359
0.121478
0.0930997
0.304037
0.370517
0.0881827
0.295493
0.132066
0.108321
0.149992
0.373496
0.197672
0.0477693
0.102501
0.28621
0.133066
0.0826691
0.179798
0.0536563
0.179611
0.270925
0.152679
0.053969
0.103202
0.813487
0.0931014
0.0545057
0.105818
0.448035
0.132172
0.687714
0.123623
0.0596618
0.147849
0.263998
0.114135
0.227539
0.194644
0.0590324
0.163526
0.153466
0.163764
0.689043
0.108706
0.121864
0.215233
0.08601
0.188877
0.745385
0.0968329
0.0981508
0.13871
0.0576983
0.106192
0.166464
0.239783
0.104226
0.151174
0.0420403
0.214697
0.74593
0.166617
0.0518452
0.231952
0.116483
0.222619
0.445728
0.156491
0.452067
0.0992232
0.408774
0.104461
0.104362
0.226372
0.0683418
0.202366
0.050614
0.196186
0.184554
0.139758
0.216047
0.133797
0.0400854
0.14743
0.114971
0.118992
0.470389
0.139124
0.132536
0.131952
0.125256
0.184908
0.0878246
0.127076
0.0999152
0.208675
0.440745
0.143203
0.147722
0.171041
0.0933927
0.179348
0.466514
0.13329
0.450759
0.110153
0.240313
0.181942
0.159729
0.298789
0.157521
0.194043
0.0598373
0.120551
0.0947556
0.231366
0.158854
0.214503
0.101666
0.144615
0.380693
0.214012
0.140272
0.195884
0.554327
0.170514
0.212576
0.535935
0.173516
0.163638
0.0773338
0.199809
0.117148
0.436875
0.112043
0.205374
0.0786858
0.210406
0.124312
0.14481
0.129418
0.192624
0.189247
0.181565
0.0765941
0.252527
0.490067
0.146279
0.065917
0.129392
0.290494
0.129276
0.254854
0.182582
0.0988019
0.129377
0.346436
0.104825
0.0739822
0.148997
0.374563
0.168215
0.246232
0.124803
0.0911102
0.14466
0.383629
0.117167
0.336026
0.120773
0.433945
0.149273
0.119774
0.260668
0.140832
0.145199
0.415663
0.255433
0.155117
0.150587
0.0740841
0.146625
0.111028
0.17554
0.431822
0.106075
0.0730889
0.192076
0.405697
0.125312
0.478295
0.125489
0.110141
0.310752
0.0929247
0.195181
0.0856977
0.252176
0.128033
0.170856
0.257902
0.239573
0.105878
0.159231
0.471844
0.154594
0.151801
0.242235
0.0933385
0.234754
0.058488
0.14885
0.593573
0.151665
0.110598
0.180158
0.229425
0.155303
0.107116
0.151655
0.0575692
0.139739
0.0809813
0.249361
0.31035
0.13647
0.0992374
0.135925
0.0963386
0.178675
0.0607988
0.16149
0.0909903
0.195264
0.0825756
0.167869
0.13042
0.162333
0.0761944
0.150103
0.161387
0.24744
0.108777
0.234691
0.406285
0.186384
0.125879
0.358123
0.229377
0.204024
0.133252
0.21467
0.0848093
0.184633
0.258722
0.185743
0.136276
0.466176
0.147858
0.188146
0.369769
0.125823
0.332291
0.146311
0.166201
0.300071
0.268484
0.15014
0.176635
0.225625
0.131317
0.234742
0.258121
0.144355
0.0779511
0.251884
0.591367
0.119549
0.302763
0.153221
0.150404
0.243735
0.0949209
0.196931
0.186973
0.176073
0.120895
0.20447
0.2763
0.165091
0.141975
0.168401
0.176817
0.217075
0.101368
0.296164
0.455353
0.134202
0.124785
0.248148
0.118963
0.233896
0.135704
0.197723
0.232847
0.211557
0.131494
0.165306
0.24771
0.153176
0.208677
0.212233
0.145584
0.213342
0.0845029
0.220966
0.514312
0.127048
0.28491
0.157791
0.124416
0.213769
0.304247
0.155667
0.0589819
0.185389
0.186042
0.197671
0.185176
0.241685
0.212726
0.208373
0.203866
0.235815
0.177826
0.201059
0.186025
0.245911
0.354136
0.18968
0.0867354
0.15845
0.113019
0.175232
0.141494
0.325058
0.189864
0.182645
0.117461
0.167061
0.42389
0.15091
0.172473
0.259059
0.0509532
0.2584
0.142217
0.243159
0.170162
0.196875
0.112914
0.183623
0.210466
0.227173
0.114269
0.179066
0.195168
0.284439
0.200822
0.246148
1.15543
0.0876369
1.15268
0.084293
0.837424
0.0818521
0.0384132
0.137647
0.104015
0.0992299
0.114484
0.172298
0.835217
0.0865715
0.137066
0.136438
0.0714858
0.144371
0.0929575
0.0996444
0.105849
0.0851023
0.0902604
0.804266
0.705454
0.0846344
0.104943
0.104699
0.306919
0.0909557
0.141428
0.143961
0.803932
0.0865447
0.112765
0.151385
0.690885
0.090081
0.453879
0.100055
0.0839968
0.142222
0.200052
0.0928393
0.446761
0.0914536
0.0465167
0.131143
0.749078
0.0886279
0.0995267
0.108282
0.10151
0.218321
0.0782768
0.122302
0.208129
0.126349
0.0737817
0.161485
0.125611
0.134072
0.109578
0.142527
0.166154
0.129087
0.135455
0.224409
0.475103
0.0916297
0.180736
0.158642
0.130333
0.129244
0.233536
0.129008
0.0676854
0.125726
0.139753
0.10332
0.101119
0.217346
0.187421
0.0996995
0.167619
0.14164
0.118331
0.178378
0.0700748
0.177155
0.126144
0.471298
0.196389
0.109911
0.236547
0.111566
0.0520978
0.10507
0.287434
0.103531
0.57378
0.0971555
0.110426
0.11672
0.31329
0.142883
0.0642198
0.121175
0.120546
0.165514
0.127411
0.138229
0.129995
0.172152
0.13093
0.16123
0.735026
0.0972955
0.0775902
0.189817
0.10498
0.727872
0.0619547
0.160623
0.402021
0.108736
0.0943131
0.122847
0.422359
0.110103
0.115617
0.137481
0.628645
0.125866
0.0549881
0.161099
0.0871763
0.152096
0.151747
0.185424
0.140408
0.173347
0.3755
0.1147
0.126202
0.126936
0.0723537
0.120926
0.0823429
0.135328
0.10973
0.16708
0.193099
0.207261
0.0739216
0.144399
0.0932239
0.205018
0.142635
0.178793
0.113984
0.161785
0.117044
0.191354
0.154844
0.170422
0.216676
0.1126
0.0728014
0.128058
0.534241
0.113315
0.119397
0.145145
0.102471
0.157051
0.226657
0.111178
0.290732
0.116428
0.299298
0.119147
0.0571762
0.116914
0.0658146
0.165487
0.625807
0.103846
0.124422
0.35529
0.135915
0.139297
0.0529466
0.117012
0.481157
0.114131
0.0857558
0.13917
0.0837983
0.138124
0.146013
0.146614
0.348292
0.137477
0.626759
0.112577
0.215424
0.143343
0.108271
0.306307
0.15281
0.125976
0.373795
0.15348
0.12174
0.143686
0.409891
0.121591
0.123867
0.161165
0.301775
0.107921
0.154572
0.146492
0.324139
0.127894
0.201964
0.117473
0.256938
0.158356
0.106474
0.135497
0.316185
0.159294
0.0717306
0.148068
0.162337
0.205265
0.166679
0.122631
0.39561
0.115877
0.0776867
0.151861
0.106509
0.149236
0.14315
0.17879
0.101322
0.243655
0.119156
0.166337
0.230576
0.14827
0.26587
0.142605
0.138763
0.176657
0.074165
0.134479
0.352834
0.126095
0.118444
0.14927
0.459911
0.159142
0.088977
0.151931
0.0876819
0.169117
0.154892
0.230615
0.341489
0.142791
0.0998486
0.224199
0.118731
0.167915
0.168343
0.115094
0.337674
0.130997
0.15113
0.200283
0.0808114
0.151868
0.315316
0.158372
0.261499
0.139301
0.134933
0.206555
0.151826
0.224762
0.0947425
0.15687
0.131124
0.137902
0.0874507
0.198993
0.280598
0.157199
0.17711
0.21249
0.15479
0.197004
0.516884
0.111492
0.197886
0.196016
0.363429
0.183049
0.127677
0.159426
0.180657
0.188785
0.120148
0.197759
0.133163
0.193393
0.158438
0.179582
0.288284
0.157232
0.37855
0.142363
0.163456
0.185874
0.129031
0.230942
0.159753
0.206909
0.134568
0.21458
0.241946
0.168092
0.0852106
0.192246
0.0758208
0.239172
0.154001
0.155949
0.108025
0.165
0.153886
0.215711
0.239577
0.17672
0.129765
0.221913
0.192248
0.198026
0.382653
0.125583
0.129102
0.174173
0.0862619
0.175992
0.328926
0.138858
0.0675585
0.171771
0.0745412
0.155743
0.314613
0.147449
0.176278
0.156377
0.1839
0.201306
0.181939
0.179205
0.210307
0.16415
0.114336
0.217076
0.184293
0.268762
0.165871
0.245795
0.837684
0.0798647
0.0937729
0.121269
0.11157
0.121864
0.0626778
0.104543
0.0732815
0.1123
0.0588684
0.132683
0.0846827
0.133921
0.166856
0.0894504
0.819584
0.0755746
0.372175
0.0819767
0.0864008
0.192009
0.185445
0.0888514
0.0939665
0.125974
0.709507
0.0763206
0.169888
0.0962237
0.8183
0.0920493
0.0975765
0.127127
0.0829376
0.271461
0.101717
0.135841
0.0775928
0.112456
0.0455096
0.11167
0.751529
0.0853558
0.267563
0.094699
0.813141
0.0771414
0.425186
0.0948288
0.0922034
0.111358
0.0738832
0.126133
0.0670872
0.122914
0.108655
0.208954
0.774536
0.083015
0.774853
0.0958866
0.155205
0.175274
0.104308
0.137573
0.107088
0.140348
0.0692943
0.171587
0.130939
0.141062
0.207253
0.0894686
0.411035
0.0892714
0.194276
0.143169
0.0735756
0.134686
0.078593
0.575493
0.574707
0.0920367
0.0967129
0.103311
0.247979
0.093506
0.0584498
0.136263
0.0529458
0.170467
0.0670103
0.132766
0.0663682
0.128116
0.112587
0.152211
0.470113
0.0923374
0.735594
0.0959432
0.115199
0.159149
0.186008
0.138402
0.120022
0.141684
0.434761
0.106412
0.129361
0.102188
0.165987
0.120484
0.217409
0.128239
0.118279
0.149616
0.145736
0.155277
0.14471
0.144104
0.726663
0.124261
0.0812807
0.12234
0.103983
0.12148
0.211252
0.097084
0.167708
0.131803
0.121285
0.120146
0.530321
0.0977103
0.156777
0.154147
0.121968
0.158135
0.0606557
0.119244
0.0782277
0.114858
0.410335
0.0998429
0.121578
0.192256
1.11329
0.0919095
1.11308
0.500736
1.07587
0.192422
1.07229
0.154979
1.11149
1.06623
0.243453
0.130307
0.497777
0.673862
0.967681
0.143449
0.493774
0.0912131
0.673304
0.113908
0.966506
0.115692
0.491648
0.118467
0.960557
0.65644
0.256162
0.445265
0.31265
0.248875
0.644292
0.117887
0.442493
0.113345
0.956812
0.176197
0.637503
0.245553
0.415697
0.132208
0.953331
0.134846
0.231172
0.448117
0.91664
0.165273
0.961943
0.129587
0.63203
0.139329
0.410413
0.070585
0.447533
0.297425
0.349847
0.121669
0.915925
0.163289
0.297037
0.427257
0.226626
0.182395
0.303575
0.178819
0.274097
0.150391
0.420953
0.145514
0.914699
0.289358
0.904943
0.134648
0.629987
0.192781
0.623911
0.219711
0.249876
0.0831236
0.246771
0.184014
0.40889
0.128016
0.280753
0.502641
0.849982
0.1072
0.501011
0.187168
0.24972
0.108061
0.218121
0.106977
0.622861
0.187255
0.617167
0.216922
0.608102
0.163278
0.40002
0.135388
0.848836
0.139349
0.497391
0.201286
0.845046
0.172343
0.389059
0.150789
0.492728
0.14303
0.843678
0.0811056
0.607621
0.269058
0.5895
0.759144
0.546288
0.235381
0.47413
0.13733
0.470258
0.101958
0.758531
0.208342
0.753255
0.400245
0.341643
0.143137
0.254814
0.153918
0.542184
0.159933
0.58555
0.157284
0.391979
0.238219
0.572101
0.219383
0.529937
0.14723
0.526121
0.191142
0.517573
0.21329
0.311321
0.101322
0.57104
0.12819
0.752015
0.215797
0.368838
0.157306
0.512684
0.238529
0.49486
0.315223
0.537036
0.269355
0.740316
0.18362
0.292913
0.148566
0.533219
0.234048
0.476755
0.213803
0.366223
0.11721
0.261744
0.155949
0.738002
0.27884
0.442567
0.127778
0.736723
0.147986
0.734727
0.239109
0.516685
0.242195
0.725848
0.118036
0.724806
0.236689
0.418741
0.665645
0.441118
0.235966
0.49973
0.183389
0.660973
0.434378
0.591366
0.0822055
0.440164
0.152107
0.42807
0.537965
0.37113
0.222116
0.484653
0.235271
0.41651
0.304061
0.369212
0.388239
0.45974
0.179198
0.356646
0.259704
0.458399
0.22848
0.392201
0.241722
0.43629
1.11249
0.129853
1.11087
0.131527
1.07435
0.132368
0.157724
0.147377
0.106776
0.236404
0.131591
0.221947
1.07502
0.143161
0.158484
0.19086
1.07044
0.185282
0.113182
0.169974
0.967033
0.122081
0.138937
0.671326
0.210031
0.196125
0.963566
0.20176
0.13135
0.181174
0.961157
0.129655
0.142643
0.185302
0.957342
0.206997
0.146037
0.16423
0.139565
0.209098
0.145674
0.179443
0.669193
0.142189
0.228053
0.152612
0.641958
0.142545
0.153617
0.1767
0.954178
0.19322
0.0808437
0.170331
0.145302
0.952205
0.136027
0.167468
0.951033
0.147129
0.633841
0.164347
0.324103
0.206253
