# vtk DataFile Version 3.0
Tree
ASCII
DATASET POLYDATA
POINTS 1582 float
162774 225274 273.8
162774 225274 10273.8
141774 225774 23773.8
134174 214102 30497.8
136454 217603 28480.6
144774 209774 52789.8
139615 214628 37718.2
120222 202774 55773.8
145030 208915 50956.6
153058 199774 67773.8
126235 205285 53138.6
125774 197846 71773.8
120871 202593 55200.6
106390 193774 59773.8
152308 200941 62307.8
167774 185258 70773.8
123835 199335 66511.4
110774 189886 80773.8
126045 198315 71207.4
134774 195774 86897.8
161608 191794 70213.4
171234 183774 92773.8
165964 186041 69973
173782 170774 66773.8
108234 193382 60184.6
92289.8 179774 67773.8
168010 185725 81953
177774 173078 84773.8
132155 196536 82190.6
120774 193986 100774
128741 195771 87765.8
139774 195998 106774
172125 172376 67777.4
177026 152774 67773.8
174771 161791 67775.4
171986 150774 51773.8
174845 176872 83927.4
181774 167074 105774
95122.6 181920 68104.6
81773.8 168862 84773.8
87233.8 173507 76066.2
79773.8 161938 73773.8
176895 174216 84519.8
181774 158774 82753.8
110753 191198 79795
95773.8 183774 93577.8
122365 194749 99781.4
116774 195998 118774
136464 195930 101071
157774 193230 103774
176659 152990 67634.6
180046 131774 66773.8
96139 183876 92005
84237.8 177774 99773.8
122173 195261 107848
131774 195998 120774
131001 195799 118124
144774 195998 126774
178841 136942 65466.2
177974 127774 55773.8
180768 160563 83933.4
183998 141774 87773.8
180179 166205 102423
183998 152774 118774
81763.4 162939 73832.6
79597.8 146774 69773.8
82547.8 169264 84547.4
76773.8 162774 99949.8
80848.2 162478 73805.8
76773.8 154774 85589.8
95883.4 183804 93105.8
92181.8 187774 110774
117811 196082 118204
113774 198018 135774
140532 195632 121934
156774 193998 118774
170579 184327 92372.2
172774 183966 110774
131542 195938 119979
132774 197998 134774
178320 129969 56459.8
178774 125774 41981.8
134023 196997 130855
144774 195998 143774
182967 154300 114639
183998 137774 120774
183689 153232 117533
183998 147774 134774
183905 149411 129602
182018 134774 134774
78657.4 156267 80268.2
77713.8 141774 83773.8
80743.8 149038 70449.8
83605.8 131774 66773.8
77841.8 154415 84581.8
77541.8 146774 97773.8
78647 163266 97446.6
79017.8 153774 111774
78263 147539 96639
79773.8 140774 108798
183970 148265 133222
183998 154774 145774
92424.2 185442 108129
86773.8 178774 125958
115308 197282 129097
98773.8 193774 134882
103734 194826 133147
93773.8 191222 123774
182584 139165 133222
177946 133774 152774
113979 196849 134661
108774 192774 155962
171289 184868 109085
169978 186774 125774
107760 191762 146822
101774 186774 152966
143391 195756 139284
161774 191774 144002
78520.6 143867 83667.4
81657.8 128774 89773.8
144138 195887 141709
131074 199774 154774
134993 198608 150854
136774 197894 165774
87863.8 178614 121538
83661.8 164774 128774
181295 166813 104769
181230 169774 124774
83668.6 134755 66226.2
89573.8 119774 55773.8
182188 136091 134308
179782 118774 124774
87100.6 178726 124632
89773.8 173774 139890
182069 135169 134634
174774 119774 141326
108469 192470 153220
107774 182774 166866
177168 133668 150601
171194 128774 161774
108683 192683 155139
117570 193774 167774
183539 153297 144372
180774 156774 159970
181632 167855 120492
183978 161774 132774
85440.2 130261 63090.6
89773.8 112474 72773.8
179653 120016 124599
177814 109774 117774
100262 194089 134361
93773.8 185182 137774
179743 119147 124721
172542 109774 131774
82089 142468 68507
85585.8 139774 52773.8
103788 186959 150861
97773.8 172774 156802
82366.6 130523 89030.6
87773.8 117774 94097.8
137924 197267 164453
141082 195774 175774
89427 120576 55595
93773.8 110654 46773.8
174789 121147 139993
169774 112414 142774
80345.8 141481 107077
86773.8 132774 119958
172986 130242 158422
167298 120774 157774
85067.8 166551 127240
85601.8 150774 131774
171069 129192 161325
163774 126414 170774
88893 117761 68124.6
94317.8 105774 63773.8
171283 185307 122808
176774 179970 136774
180539 155101 158315
176774 154774 171886
108942 185000 164569
114774 179978 176774
174241 131270 156076
173206 138774 167774
100757 175633 156853
101554 166774 163774
177465 110859 119106
171774 97773.8 114126
87226.2 119816 92264.2
94289.8 107774 90773.8
144583 195965 143154
149050 193774 157774
87609.4 118387 93547.8
93773.8 111774 104134
132249 199424 153598
120774 200002 150774
177903 154872 167815
174774 146774 171890
112091 182288 171159
109514 169774 174774
167717 122350 158089
159322 113774 158774
89577 116795 98727
89773.8 119774 110126
183860 154331 145353
181978 167774 146774
177113 154803 170665
173986 164774 178774
86657.8 133880 118865
93705.8 126774 130774
170549 115164 142781
162774 110226 149774
94051.4 107090 65166.2
99565.8 96773.8 63773.8
165907 128277 169035
160774 132774 181978
101920 167089 163045
103774 157774 169082
176875 154783 171519
170774 150774 182026
147710 194431 153388
159774 189990 156774
94268.2 109387 91250.6
102286 99773.8 90773.8
160162 190905 143646
171774 185258 146774
172195 99441 113436
166774 88773.8 105970
98668.6 173631 156817
92317.8 165774 147774
171900 98273.8 113919
165290 96773.8 125774
174136 162362 178124
169026 166774 189774
148999 193496 157428
152806 189774 168774
93829 112150 104023
102262 104774 113774
111359 174595 174692
114774 165774 185294
173776 102867 115137
174774 95561.8 97773.8
90550.6 119101 109230
92773.8 120774 119954
181897 165264 147409
177774 175774 154054
93130.6 128488 129763
99705.8 124774 140774
171920 152416 180834
167194 154774 193774
113203 169831 180417
110318 156774 179774
171118 151267 181668
166010 144774 187774
99529.4 97275 63379.4
105738 86773.8 60773.8
168517 91233.8 106433
168774 85773.8 94881.8
96049 127788 135578
97537.8 132774 143774
169975 166489 185837
163034 175774 190774
166727 98093.8 124500
162870 99773.8 134774
100337 107185 112732
104774 107774 125134
167297 89511.8 106109
158774 81541.8 100774
110626 158712 178300
108122 148774 173774
101169 101249 89973
109774 91773.8 84133.8
177133 174486 153529
170774 183186 159774
110410 157355 179331
113762 152774 186774
102023 107409 117445
110514 99773.8 120774
151493 190219 167450
150774 185774 181202
93533 127288 130471
99773.8 116774 130890
174833 95974.2 98301
175842 90773.8 84773.8
96133 103360 64487
97657.8 98773.8 51773.8
105648 88174.2 61607.4
112514 79773.8 60773.8
167741 86548.2 97145.4
161890 80773.8 88773.8
97169 132828 142848
97773.8 142774 152966
174031 164050 178579
175194 173774 168774
109953 151647 176280
113506 138774 177774
104791 107226 123559
111774 104774 133110
172071 180779 159395
167774 182774 169110
112155 143666 177206
116774 140774 185958
164581 83429.8 92625
169378 82773.8 81773.8
113668 154151 186024
119554 153774 195774
110858 82996.6 62112.2
121774 76993.8 67773.8
97543.8 138994 149121
93497.8 148774 146774
97668.2 141035 151197
103774 138774 160974
169118 83147 83583.4
176774 84173.8 73773.8
169300 82885.8 82316.6
163774 75773.8 75977.8
112993 140633 177558
110774 132774 167958
110318 101097 121109
119518 95773.8 125774
110792 105576 131884
118226 105774 142774
117788 153887 192849
122774 141774 197246
96006.2 142711 148229
89773.8 143774 137890
115388 141641 183332
121774 129130 183774
167749 181886 168427
162774 181882 177774
165432 77907.4 77879.4
168774 73545.8 69773.8
113022 105635 135151
122774 98773.8 135946
116022 97796.6 124001
122582 89773.8 116774
108823 149029 174151
107506 141774 168774
116665 105732 140487
115130 113774 151774
117757 105761 142088
128386 102774 147774
121573 92263 119583
131774 87497.8 118774
116204 108145 143873
107518 116774 143774
125991 104141 147386
131774 106774 155970
114616 112924 149217
108774 121774 153266
129028 88364.2 117797
137662 81773.8 109774
130950 87757.8 118481
137774 87773.8 125062
129113 105563 152021
124774 111774 159138
131618 86387 115390
128774 83633.8 104774
94451 146470 147327
96773.8 156774 155970
111929 116995 151080
114774 121774 163110
119450 96161 125571
129774 92325.8 129774
130749 84231.4 107509
135774 81017.8 97773.8
122443 100129 136483
132738 95773.8 138774
115736 119022 159604
122274 118774 167774
121162 119413 167272
125774 120774 175318
134619 214861 30670.6
131658 210774 36773.8
134205 211441 42449.4
126774 209886 41773.8
131814 209594 45656.2
135774 208038 54773.8
130141 208301 47901
121662 206774 46773.8
124225 207196 46328.2
118774 205970 40773.8
135347 207902 54098.6
138774 205774 62781.8
122431 206901 46640.2
113774 201774 48129.8
137746 206412 60176.6
132774 202038 65773.8
138867 205731 61876.6
143774 202774 67293.8
134794 203252 64837.4
134774 199774 73077.8
153135 199529 67417.8
155058 195774 75773.8
114584 201791 48393.4
106774 195978 50773.8
142729 203070 66878.2
145774 199186 74773.8
155357 195951 75448.6
157774 193186 81773.8
106943 193656 59897
102774 191966 54773.8
114791 194054 72235.8
106486 189774 71773.8
125855 197987 71603.8
123774 194550 77773.8
145359 199537 74487.4
147774 196002 82773.8
104025 192473 56310.6
96773.8 185974 56773.8
146277 198194 77636.2
140774 196066 82773.8
108069 190321 72598.6
101774 185426 76773.8
129765 196001 86093
122774 192074 85773.8
168798 179755 68963
169774 176898 60773.8
134837 196072 85933
141774 195998 91773.8
171037 183940 92653.4
175774 178802 96773.8
93819.4 180933 67952.6
91573.8 178774 60773.8
124694 194879 92952.2
115774 191950 94773.8
173285 171255 67075
170774 165774 58249.8
92748.6 180121 67827.4
87553.8 173774 65773.8
172724 158630 58534.6
171290 159774 53773.8
173657 168313 68756.6
177966 163774 74773.8
92496.2 179208 72307.8
91577.8 178774 82773.8
116134 192119 94046.2
108774 189774 94645.8
122277 194985 103492
113774 193986 107774
176673 165136 72968.6
178054 156774 73773.8
181630 166996 105472
179886 172774 108774
84660.2 168726 73983.4
82525.8 165774 66773.8
92568.6 182045 94335.4
87665.8 176774 90773.8
172495 153663 52937.8
173774 151774 43185.8
176916 152839 67731.8
180014 148774 74773.8
115693 193886 105715
106226 190774 103774
179425 149031 72872.6
181782 142774 74773.8
143983 195179 101059
149078 195774 95773.8
117085 196023 118603
[...]
CELL_DATA 1581
SCALARS radius float
LOOKUP_TABLE default
2.122e-314
100
100
1.15056
0.128414
1.15002
0.990318
0.818608
0.0655784
0.817291
0.784166
0.772324
0.053759
0.784081
0.220731
0.811279
0.734212
0.40062
0.153991
0.731947
0.766151
0.436169
0.432549
0.106425
0.131789
0.782838
0.304706
0.749736
0.729836
0.123347
0.712382
0.297338
0.123495
0.425295
0.237483
0.39005
0.263736
0.737188
0.177884
0.779116
0.758657
0.320186
0.0666407
0.26231
0.105055
0.379445
0.0713961
0.708587
0.27602
0.160575
0.24034
0.353856
0.338834
0.246561
0.593359
0.5199
0.469002
0.332469
0.11454
0.340159
0.0845634
0.228104
0.223403
0.728211
0.705678
0.438334
0.0610838
0.313431
0.0631977
0.705509
0.116411
0.33419
0.210917
0.583527
0.286653
0.228193
0.132079
0.296199
0.461763
0.167546
0.242777
0.292595
0.455372
0.159162
0.719171
0.232951
0.71755
0.135895
0.503615
0.622928
0.464239
0.630245
0.0802846
0.43233
0.0688873
0.463733
0.093113
0.267062
0.0722734
0.458916
0.497514
0.166147
0.100455
0.318269
0.227364
0.569982
0.140662
0.207779
0.540629
0.437439
0.147434
0.566674
0.215829
0.246959
0.331677
0.517933
0.414443
0.280165
0.0769044
0.629099
0.304424
0.350268
0.218469
0.308144
0.224992
0.259244
0.11089
0.213898
0.415318
0.122509
0.287017
0.512194
0.0943482
0.21932
0.0551673
0.286336
0.246726
0.49479
0.141582
0.39876
0.0675027
0.24503
0.326017
0.440833
0.116172
0.152282
0.381855
0.223176
0.204471
0.494555
0.0869902
0.202567
0.057671
0.202931
0.418841
0.179471
0.0926325
0.329251
0.626274
0.118291
0.163721
0.279804
0.162406
0.149722
0.0953668
0.24463
0.0800207
0.454377
0.333958
0.240728
0.130741
0.204642
0.0722285
0.332828
0.366008
0.188037
0.110965
0.230033
0.0908318
0.436127
0.098322
0.489504
0.371317
0.219926
0.266895
0.249751
0.0871206
0.491795
0.609884
0.24348
0.064415
0.30346
0.0643004
0.609645
0.0955956
0.212189
0.135506
0.425535
0.484073
0.156885
0.102719
0.234325
0.600644
0.214641
0.0618518
0.325273
0.286832
0.376707
0.446725
0.151697
0.168424
0.214448
0.359343
0.138033
0.210559
0.25854
0.0949114
0.179781
0.0620101
0.285862
0.258288
0.209106
0.085086
0.239965
0.0998425
0.259746
0.31733
0.406062
0.0861014
0.263874
0.205768
0.285382
0.236281
0.342753
0.0678125
0.25672
0.188611
0.59438
0.46374
0.225614
0.462464
0.262278
0.0850855
0.210088
0.141912
0.316008
0.425542
0.190376
0.23992
0.21216
0.45196
0.194947
0.0840079
0.236436
0.0764958
0.329605
0.244535
0.36901
0.130434
0.421417
0.132139
0.328636
0.220157
0.215667
0.164978
0.587363
0.0879709
0.240679
0.332486
0.381594
0.101307
0.233789
0.092569
0.306343
0.079972
0.330937
0.511498
0.407029
0.114571
0.229685
0.0707686
0.187059
0.0899133
0.258707
0.340164
0.191658
0.108059
0.313599
0.119904
0.36474
0.148966
0.415119
0.0811945
0.233041
0.357725
0.213912
0.0854151
0.510703
0.120863
0.289959
0.274298
0.292943
0.153168
0.334057
0.317041
0.163574
0.14751
0.2834
0.262803
0.357813
0.119558
0.254282
0.215317
0.283189
0.101862
0.278726
0.121197
0.266173
0.0839098
0.405837
0.0905423
0.507304
0.138362
0.308001
0.272125
0.294951
0.202623
0.256217
0.117865
0.250395
0.187999
0.246671
0.262033
0.48284
0.379821
0.22925
0.17294
0.166502
0.344489
0.412456
0.0805055
0.343017
0.120587
0.375725
0.158772
0.40446
0.298452
0.170724
0.114963
0.40134
0.269059
0.31421
0.0941678
0.265158
0.207003
0.260679
0.273022
0.220153
0.195772
0.232992
0.351833
0.276299
0.0707719
0.226979
0.148132
0.257635
0.104165
0.245181
0.150355
0.342431
0.130998
0.297016
0.100078
0.103703
0.98977
0.117243
0.983556
0.262788
0.980584
0.204892
0.0984628
0.197013
0.055477
0.252573
0.0569346
0.195415
0.228068
0.161974
0.0621402
0.22652
0.0893761
0.152342
0.0481184
0.219966
0.0696026
0.175744
0.0720151
0.217072
0.20226
0.133305
0.0511643
0.129167
0.17012
0.386627
0.0399831
0.153088
0.0713007
0.204768
0.0798961
0.118048
0.144963
0.17694
0.114946
0.150438
0.729246
0.0980229
0.102713
0.43061
0.0672161
0.116298
0.107196
0.102354
0.0999516
0.166673
0.708828
0.17526
0.0609836
0.118324
0.0536757
0.164797
0.108558
0.223182
0.417428
0.161219
0.77721
0.151277
0.0660461
0.172076
0.70435
0.176131
0.090966
0.150921
0.0506763
0.107244
0.758067
0.100592
0.211148
0.17732
0.150952
0.178482
0.0408635
0.239945
0.088175
0.168433
0.0865906
0.236126
0.263197
0.140895
0.0486916
0.210049
0.112572
0.207884
0.172122
0.15417
0.23008
0.182241
0.0653285
0.207921
0.0420349
0.114554
0.231914
0.177319
0.0799601
0.233029
0.433251
0.142542
0.210146
0.278111
0.085711
0.226045
0.0456808
0.166407
0.180523
0.169871
0.453352
0.10775
0.0752136
0.206884
0.122058
0.279078
0.0817644
0.171324
0.321571
0.14537
0.106565
0.22535
0.104162
0.202335
0.129373
0.134675
0.270783
0.11831
0.0704598
0.240783
0.208495
0.169808
0.173342
0.153917
0.105838
0.192181
0.24982
0.151191
0.112795
0.196167
0.179957
0.176349
0.0852668
0.173335
0.261094
0.13348
0.459512
0.139221
0.0666711
0.213687
0.139539
0.560847
0.306568
0.116686
0.138413
0.245639
0.143773
0.245669
0.132893
0.118996
0.429549
0.115713
0.0562108
0.144658
0.0713504
0.224276
0.226658
0.147094
0.297665
0.116241
0.105709
0.243345
0.505941
0.155664
0.115086
0.28
0.117134
0.345846
0.221075
0.18775
0.404623
0.18693
0.118059
0.128593
0.132269
0.167066
0.417507
0.199233
0.249369
0.186099
0.137063
0.179019
0.405741
0.16918
0.0841319
0.155952
0.455203
0.116895
0.095798
0.178136
0.109434
0.235732
0.492704
0.11059
0.0612852
0.146217
0.196952
0.134978
0.297363
0.143658
0.167086
0.180543
0.114408
0.160767
0.132551
0.222351
0.0722664
0.135005
0.0994056
0.215521
0.437436
0.125264
0.224716
0.191529
0.622554
0.110823
0.116536
0.203506
0.623722
0.123929
0.140931
0.177887
0.298574
0.217238
0.100696
0.217295
0.0850606
0.182046
0.120204
0.272586
0.123369
0.160771
0.179952
0.203759
0.123104
0.192771
0.111303
0.192026
0.430067
0.133056
0.123627
0.211479
0.0912139
0.208799
0.437881
0.115934
0.0898211
0.128731
0.0411576
0.187955
0.480898
0.130398
0.13945
0.178056
0.120696
0.169638
0.16276
0.20452
0.440574
0.153717
0.0796402
0.21361
0.121368
0.206843
0.178366
0.186604
0.0916769
0.204599
0.0856554
0.180383
0.0629995
0.166691
0.052856
0.204599
0.132975
0.189379
0.14148
0.166398
0.158546
0.20978
0.238819
0.148855
0.109585
0.593136
0.309135
0.126299
0.591669
0.115573
0.106948
0.2114
0.149327
0.209703
0.0770921
0.159165
0.159789
0.176194
0.139011
0.186964
0.330972
0.145894
0.261025
0.260652
0.140469
0.188293
0.344463
0.197051
0.104164
0.186828
0.155882
0.216543
0.296796
0.137593
0.162189
0.204178
0.19196
0.182764
0.190989
0.172694
0.123702
0.251415
0.15865
0.183321
0.184695
0.212469
0.508263
0.123854
0.134257
0.160381
0.319756
0.166138
0.210245
0.129875
0.187873
0.252665
0.0997147
0.185832
0.174642
0.221066
0.136643
0.179336
0.232085
0.255696
0.251107
0.214186
0.190253
0.228761
0.184301
0.21674
0.101821
0.208974
0.1227
0.220039
0.251295
0.128513
0.190068
0.207755
0.106282
0.205082
0.160012
0.219958
0.073774
0.2305
0.158679
0.25762
0.209228
0.21167
0.168711
0.230808
0.0807905
0.22746
0.126587
0.18984
0.133746
0.202288
0.128436
0.212897
0.151669
0.192677
0.17701
0.226075
0.305278
0.227037
0.131938
0.211091
0.081312
1.14989
0.044593
0.100878
0.0799896
0.103222
0.818014
0.106109
0.817432
0.0888184
0.253462
0.123075
0.219683
0.100696
0.771993
0.0839369
0.81669
0.0873453
0.397309
0.116498
0.20761
0.108581
0.731008
0.114643
0.111235
0.190358
0.0716313
0.104805
0.117757
0.125036
0.0683657
0.109512
0.434686
0.0944962
0.0572751
0.100581
0.0546402
0.0998773
0.377719
0.0905381
0.117289
0.157756
0.428738
0.101208
0.382111
0.126032
0.117528
0.736191
0.748273
0.12023
0.231434
0.0999157
0.0632364
0.111078
0.0756775
0.139124
0.293061
0.103789
0.0709821
0.120037
0.708002
0.0958337
0.0924341
0.317597
0.127798
0.111192
0.592572
0.0939909
0.314202
0.100543
0.0899638
0.169238
0.328462
0.109499
0.100271
0.348384
0.344434
0.112452
0.727228
0.0904495
0.119735
0.146289
0.331183
0.0999454
0.519141
0.0850138
0.581794
0.0935689
0.704992
0.091708
0.218352
0.113398
0.184687
0.173807
0.129428
0.154875
0.0662869
0.115159
0.0556634
0.188758
0.5826
0.0981548
0.735153
0.0927362
0.107801
0.171529
0.0917227
0.128555
0.224481
0.109954
0.152043
0.199407
0.0836809
0.146261
0.27224
0.115949
0.12707
0.277039
0.144128
0.18241
0.119734
0.147135
0.116656
0.153559
0.629482
0.0968289
0.493681
0.141349
0.259492
0.155909
0.563712
0.141601
0.0918469
0.142137
0.130964
0.17438
0.102856
0.124697
0.175861
0.141356
0.130489
0.147621
0.10192
0.121204
0.0570701
0.163872
0.510806
0.102904
0.432113
0.144555
0.163106
0.152823
0.102947
0.120756
0.106601
0.146244
0.341099
0.118884
0.627678
0.0989904
0.514449
0.140693
0.490823
0.142451
0.395434
0.116311
0.0512636
0.115736
0.191084
0.126236
0.127686
0.14028
0.0975373
0.176701
0.208232
0.159667
0.0966239
0.13868
0.0876469
0.1304
0.0702899
0.134131
0.237059
0.111592
0.625349
0.102825
0.133283
0.146581
0.103027
0.166834
0.107221
0.165683
0.264573
0.120146
0.452481
0.105353
0.434271
0.101774
0.16783
0.176867
0.0714874
0.108855
0.152397
0.263841
0.100554
0.152282
0.24265
0.159785
0.0743893
0.130419
0.0654119
0.136517
0.131164
0.168327
0.489029
0.1259
0.0626062
0.148056
0.216472
0.175812
0.119222
0.158082
0.0788531
0.227382
0.16277
0.168577
0.325824
0.103316
0.142264
0.178375
0.083198
0.138723
0.274581
0.136449
0.166714
0.168973
0.167098
0.157393
0.188198
0.151514
0.132831
0.228415
0.0936304
0.125234
0.242502
0.144557
0.195213
0.12835
0.1604
0.167776
0.0973368
0.143243
0.121777
0.199507
0.101159
0.137454
0.119124
0.143277
0.401804
0.127738
0.111379
0.110118
0.335608
0.135102
0.113425
0.192249
0.106115
0.200818
0.131425
0.190945
0.106744
0.190215
0.122194
0.174142
0.128421
0.167198
0.149152
0.204873
0.232398
0.134337
0.586026
0.111333
0.236203
0.16053
0.246488
0.136596
0.102527
0.143491
0.177135
0.164768
0.107046
0.200383
0.144078
0.171625
0.22066
0.190969
0.317818
0.154746
0.143999
0.176794
0.0654001
0.14464
0.148239
0.15581
0.131607
0.203799
0.082434
0.156274
0.29614
0.169497
0.128603
0.410963
0.39992
0.175942
0.0613936
0.125131
0.258814
0.191674
0.0945688
0.177281
0.130212
0.169086
0.157305
0.16008
0.199956
0.167046
0.0897584
0.167783
0.170852
0.227215
0.480659
0.114936
0.163102
0.196889
0.207504
0.19904
0.205185
0.191845
0.101326
0.180943
0.131481
0.336453
0.105242
0.198332
0.0733212
0.161621
0.369626
0.136468
0.0996555
0.158559
0.160323
0.171434
0.316019
0.186876
0.172409
0.232631
0.133964
0.160339
0.148397
0.183865
0.148002
0.203697
0.112452
0.158903
0.137988
0.179923
0.152931
0.208105
0.184582
0.27105
0.179917
0.241527
1.14973
0.0857735
0.817781
0.0775229
0.0638957
0.0977433
0.817023
0.0813282
0.0718737
0.114292
0.17931
0.119282
0.066905
0.111807
0.116117
0.156898
0.125652
0.123389
0.0809749
0.81101
0.119009
0.122761
0.810639
0.090164
0.0415946
0.131941
0.0641137
0.109628
0.0943094
0.113395
0.0767752
0.101775
0.111175
0.146221
0.0817147
0.782541
0.782194
0.0860527
0.749306
0.0898336
0.0348437
0.10099
0.100703
0.133578
0.0616458
0.12091
0.0851945
0.110151
0.129116
0.13244
0.14622
0.125336
0.0745738
0.109785
0.0821361
0.116921
0.0581863
0.128585
0.387511
0.1048
0.20897
0.125811
0.120491
0.119073
0.0809833
0.153392
0.11088
0.150593
0.112233
0.126023
0.07861
0.143483
0.146438
0.136538
0.351131
0.100527
0.206171
0.10075
0.727694
0.0936498
0.0987057
0.13834
0.0901757
0.157805
0.081194
0.136383
0.118047
0.163957
0.108936
0.114579
0.220938
0.103156
0.137498
0.138401
0.115252
0.14222
0.119406
0.130594
0.0947993
0.141154
0.165101
0.13055
0.735645
0.0961347
0.285678
0.120158
0.0695738
0.126856
0.12276
0.147033
0.292852
0.0955038
0.143675
0.170578
0.0529127
0.133167
0.0655515
0.127647
0.0805444
0.163538
0.116223
0.157599
0.134527
0.140496
0.0638287
0.129715
0.147026
0.157671
0.0888547
0.140179
0.113335
0.17283
0.107503
0.138763
0.202171
0.114321
0.559797
0.0996301
0.0976597
0.120896
0.164175
0.218253
0.169519
0.176783
0.0679572
0.135914
0.312103
0.122492
0.141812
0.115697
0.628497
0.0893897
0.457758
0.0900159
0.216152
0.100561
0.067301
0.115326
0.0894256
0.132106
0.238337
0.115056
1.08827
0.0955509
1.08802
0.152922
0.762209
0.754204
0.201782
0.942117
0.765865
0.260517
0.743698
0.940262
0.17018
0.7134
0.354798
0.0988755
0.712766
0.185587
0.937846
0.1258
0.379754
0.664481
0.402121
0.0889887
0.936702
0.137597
0.340644
0.926899
0.284228
0.128791
0.662864
0.925079
0.1673
0.142804
0.653965
0.918115
0.260832
0.892836
0.396172
0.105812
0.649638
0.0768664
0.892646
0.114359
0.89202
0.107005
0.27908
0.131834
0.386259
0.82117
0.538378
0.0958481
0.820734
0.166191
0.205491
0.236734
0.353998
0.147722
0.647082
0.202768
0.237517
0.525899
0.219678
0.306508
0.249683
0.103622
0.820183
0.142628
0.522379
0.216723
0.815108
0.151422
0.214922
0.218108
0.264096
0.115151
0.241237
0.15275
0.245828
0.172336
0.642982
0.173439
0.515926
0.117211
0.204633
0.629169
0.255945
0.112106
0.20948
0.736396
0.521987
0.0976944
0.735823
0.131661
0.51918
0.259867
0.61403
0.147201
0.24306
0.145026
0.512078
0.137394
0.242002
0.289582
0.479135
0.134076
0.734336
0.224435
0.504805
0.105396
0.612993
0.163661
0.270989
0.129093
0.733004
0.11676
0.490581
0.159612
0.609365
0.162203
0.605509
0.0974177
0.73243
0.130811
0.475862
0.0913767
0.219268
0.492775
0.207848
0.165895
0.484174
0.436873
0.311143
0.571043
0.329559
0.11157
0.731566
0.130827
0.568745
0.139853
0.471801
0.21308
0.72549
0.25441
0.405981
0.129586
0.724109
0.192375
0.284395
0.177084
0.394424
0.186552
0.308291
0.227151
0.556402
0.207708
0.457982
0.369593
0.357196
0.665031
0.440637
0.111064
0.663996
0.166786
0.55136
0.209924
0.34548
0.307335
0.318573
0.140227
0.349842
0.171272
0.431837
0.153611
0.661245
0.314648
0.366873
0.218369
0.653209
0.154815
0.301623
0.150087
0.547628
0.172122
0.649201
0.519016
0.511471
0.224977
0.336175
0.120501
0.516842
0.155982
0.543377
0.176802
0.504329
0.295014
0.482581
0.323377
0.428303
0.147742
0.312752
0.213671
0.532133
0.349599
0.440625
0.175637
0.334149
0.29294
0.376645
0.274941
0.506447
0.291157
0.39336
1.0873
0.137081
0.764255
0.141394
0.758988
0.133658
0.158685
0.161598
0.115417
0.252735
0.139441
0.237711
0.760368
0.147379
0.1664
0.20665
0.12252
0.145644
0.741528
0.15311
0.137566
0.155895
0.710333
0.1546
0.384301
0.2022
0.93697
0.132179
0.126233
0.184255
0.223798
0.322216
0.347969
0.232898
0.146684
0.200441
0.133548
0.292105
0.152637
0.208597
0.210501
0.249847
0.134054
0.236258
0.301128
0.183191
0.0869431
0.159075
0.935724
0.13705
0.169029
0.65918
0.656227
0.156494
0.170551
0.233826
0.224091
0.304649
0.650573
0.162989
0.166615
0.201316
0.391312
0.131239
0.225162
0.256417
