# vtk DataFile Version 3.0
Tree
ASCII
DATASET POLYDATA
POINTS 1582 float
162774 225274 273.8
162774 225274 10273.8
141774 225774 23773.8
134446 214182 30497.8
136644 217659 28480.6
144774 208774 53889.8
140384 213572 40169
119774 201842 57773.8
144849 208732 52129
153774 199222 67773.8
148240 205118 58073.8
135774 198774 73981.8
123320 202410 57748.6
114774 193818 72773.8
120756 199833 62256.2
100774 189810 58773.8
153560 199595 64443
169246 183774 73773.8
135686 198936 73185.8
124774 193914 84773.8
164034 189311 73167.8
171234 183774 92773.8
114966 194921 69091.4
97773.8 183226 78773.8
132412 197429 76662.2
138774 195998 95773.8
167682 185435 73592.2
173978 163774 64773.8
167933 185361 80086.2
177994 171774 84773.8
102251 185746 74125
86773.8 171990 69773.8
125067 194425 83257.8
107774 188774 94225.8
171298 182649 90013
179946 171774 104774
171989 167802 65194.6
171914 150774 50773.8
114345 190921 90058.2
114774 194002 110774
173381 164982 64900.2
179990 146774 72773.8
98299 183473 78594.6
87773.8 177254 91773.8
136789 196570 94009
140774 195998 116774
90931.4 179120 87820.2
79613.8 164774 84773.8
138179 196169 95244.2
155774 193982 105774
175839 173202 83788.2
182006 155774 86773.8
139260 196215 108123
126774 195998 117774
177679 150767 68897.8
180002 129774 64773.8
178178 172190 102329
183998 153774 115774
83565.4 167975 83880.2
79545.8 151774 70773.8
87984.2 177021 90737.4
77773.8 168790 98773.8
87837 177184 91463
88773.8 183774 104414
128688 196646 117273
115774 198002 129774
140804 196074 115986
144774 195998 132774
154351 193232 105207
165774 189430 112774
179119 137751 66341
183998 127774 77773.8
179737 132167 65243.8
178002 120774 51773.8
182427 159026 114243
183998 155774 130774
82491.4 152728 72683
83017.8 139774 63773.8
80799.4 165734 84505.8
75569.8 149774 90773.8
183071 154633 115991
183998 137774 123774
78932.2 159750 89315.4
77549.8 153774 106774
180620 158099 86947.8
183998 138774 93773.8
78205 157126 101380
78773.8 162774 111890
87745.8 181047 101615
83773.8 180774 116798
118675 197744 128639
111590 198774 145774
143265 196027 126395
159074 193774 130774
123835 197580 125591
124774 199946 141774
143865 196010 132180
143774 195982 151774
179415 171899 104040
177890 176774 119774
183146 140369 120443
182014 127774 120774
183742 138552 122775
180002 127774 135774
181124 131007 131874
179946 135774 148774
181201 134361 137963
183946 145774 142774
116644 197924 129433
97577.8 192774 132774
76578.6 152767 90336.2
81489.8 132774 80773.8
84090.2 140839 65224.6
87449.8 128774 58773.8
182933 143533 142875
182002 151774 152774
112689 197046 142827
105774 188418 157774
85406.2 180428 114812
87773.8 177774 131898
141563 196554 148864
135774 197994 163774
77746.2 154779 105155
80773.8 139658 108774
179481 134187 145411
172774 128774 157958
154331 194450 129460
157774 192530 143774
86305.8 179419 121305
83549.8 165774 126774
80452.6 137192 84475.8
83553.8 125774 88773.8
182898 158051 119203
181978 167774 127774
86441.8 132393 60709
88153.8 117774 70773.8
181281 128724 121228
178102 116774 122774
86955.4 128007 63728.6
91501.8 114774 57773.8
108955 192387 150899
116006 193774 164774
79381 146614 107109
83597.8 142774 121774
180339 128744 134604
173422 115774 138774
106581 188634 155132
101774 177774 160022
89410.6 120861 60513
91545.8 119774 47773.8
177225 177029 117539
173774 183258 129774
80949.4 140989 109031
85509.8 131774 114774
178837 118740 121377
177222 107774 115774
84376.6 169867 125133
88773.8 165774 139954
178322 117364 122355
172774 108774 129954
83339.4 140093 64209
87017.8 139774 49773.8
138080 197294 161428
141082 195774 175774
87454.6 167002 135507
93773.8 175774 147062
174786 130398 154194
167178 118774 155774
85792.6 168549 129905
86773.8 152774 133970
172680 129322 157441
164774 126774 167982
113365 191888 161383
114774 183774 175242
176195 131534 151559
174774 138774 163958
181751 149729 151829
177886 157774 170774
102747 179166 158527
99449.8 166774 158774
83831 127037 88313.4
91513.8 112774 93773.8
110278 192237 154044
121774 199998 156774
89209 117053 92135.8
90773.8 115578 102774
175542 180492 126752
177774 179074 138774
90304.2 116020 99582.2
87589.8 121774 106774
181907 150997 152415
183830 161774 143774
88868.6 118717 69711.4
95569.8 104774 76773.8
176789 109335 117427
171014 97773.8 116774
179045 155361 165091
173882 147774 174774
91951 112303 72960.2
97553.8 99773.8 62773.8
114351 186208 171084
109494 168774 174774
169504 121651 154101
164774 110270 147774
89975.8 116330 97348.2
96257.8 107774 101774
85038.2 134019 114584
93541.8 124774 127774
167876 119637 155272
158774 116774 163946
83755 142015 120221
87773.8 136774 128798
143111 196153 150901
154774 191182 159774
167121 128551 166223
161774 133094 181774
109600 172113 172193
104322 160774 169774
182466 158540 148189
179994 171774 148774
177669 157716 169886
172774 164774 181886
175902 180622 134444
171258 185774 144774
94373 110341 100446
100290 101774 92773.8
173670 103092 117074
173774 95525.8 103774
95240.2 109160 101057
97997.8 109774 112774
170997 98229.8 116623
165774 90773.8 115114
157787 192299 142859
160774 190058 152774
175417 160963 175406
169930 152774 186774
88875.8 166162 139417
93553.8 164774 149774
164345 132782 176611
166774 142226 183774
97170.6 109590 109259
93453.8 118774 116774
173596 110240 127179
164774 97773.8 129130
172787 164752 180961
167774 171970 187774
109526 169775 173999
114774 164774 185890
167740 93247.4 114315
163774 85541.8 104774
96990.2 101757 65664.2
104334 89773.8 63773.8
100436 102555 94669
107574 94773.8 90773.8
92085.4 127550 126173
99537.8 126774 141774
150412 192455 158488
152774 187846 172774
97418.6 109645 110313
105774 101774 114574
111100 168275 177567
110362 153774 179774
173181 95949 105230
171774 88389.8 93773.8
110221 158289 178021
107514 149774 172774
170038 154834 185936
164046 150774 196774
173467 183013 142292
172774 181878 158774
100594 106654 111932
104774 107774 125134
164483 86894.2 105307
161774 81565.8 95773.8
97672.2 100076 63079
100774 93573.8 52773.8
106022 96314.6 90565.4
110254 90773.8 81773.8
168033 170834 186494
159958 177774 191774
96682.6 128445 137321
97773.8 136774 148970
108984 92436.2 84411.4
104774 93589.8 75773.8
172196 90657.4 97210.6
176518 93773.8 87773.8
103644 92029 64844.2
113570 82773.8 67773.8
163987 85947.4 104934
154774 81773.8 108890
110777 154175 179440
113762 142774 182774
93695 125432 127607
100774 117774 133334
173405 181050 155444
175946 173774 166774
113598 164599 183521
115558 154774 189774
97363 136629 146587
97553.8 145774 153774
162645 82753.8 96825.8
162774 79773.8 84901.8
172446 181515 158256
167774 182774 169110
104995 106911 122919
114414 103774 134774
112628 147107 181507
111034 137774 173774
162735 80667.8 88479
172774 84773.8 79977.8
112641 83495.4 65996.2
121598 74773.8 64773.8
110081 105217 129321
117570 97773.8 127774
97420.2 139372 148743
92773.8 148774 145890
97650.6 136730 148255
103774 138774 160974
163174 79841 85448.2
165774 76997.8 75773.8
113421 144073 182394
120774 141774 193970
111343 138282 173670
110774 131590 166774
113660 143164 182660
119774 130682 182774
168895 181874 167417
166774 178774 177950
164792 76943.8 77545.8
163774 71129.8 69773.8
112881 104955 133845
116774 107774 144886
114049 105800 137157
122774 101774 140970
116696 98913.4 127631
125774 91557.8 123774
86894.6 139028 127053
91541.8 139774 137774
107681 151793 173071
103490 147774 164774
122597 93578.2 123864
125774 87601.8 114774
115302 106708 140712
109774 116222 146774
120813 103463 141008
130578 103774 150774
124312 90351 118955
133774 86353.8 118774
90621.8 164473 143383
92325.8 156774 147774
127648 103681 147844
125774 110774 157974
110911 115572 146794
107518 124774 153774
125962 88003.4 115257
130774 83597.8 107774
132059 86931.8 117870
139774 82773.8 111970
133259 86527.4 118503
134774 89765.8 128774
137814 83476.6 112275
140654 79773.8 102774
97630.2 145445 153115
98357.8 155774 158774
111737 132558 168907
116230 121774 164774
128950 84960.2 108853
129774 82313.8 96773.8
122185 102281 140981
130774 95773.8 136966
125605 110751 157447
123566 116774 164774
124286 115649 164055
124774 120358 173774
125104 112613 159958
132774 113454 166774
134990 215200 30649
131582 210774 37773.8
131661 211689 36270.2
125578 208774 40773.8
134998 209328 48757.4
135774 207982 55773.8
126968 209421 40554.6
123774 207774 47893.8
124732 208268 45692.2
117662 204774 46773.8
130319 206129 53871
130774 203774 62805.8
130091 203990 60825
126774 200774 65889.8
120886 201917 57059
112774 199986 52773.8
128329 201619 64801
129590 198774 70773.8
128909 200311 67548.6
122774 197026 71773.8
153805 198929 67340.2
154774 195774 76809.8
153783 199134 67643.8
146774 198774 74025.8
155212 196092 74807.8
159774 191962 80773.8
154905 195869 76209.4
149774 196018 79773.8
159854 192061 80181.8
163970 188774 83773.8
114312 193830 72015.8
110774 189886 80773.8
160892 192396 70550.6
167222 185774 64773.8
103090 189799 60765
96297.8 184774 61773.8
136364 196822 83656.6
142774 195998 86773.8
106495 189101 71499.8
100774 186774 67957.8
166137 185683 65446.6
168774 179774 62225.8
170701 177803 71627.4
174774 173290 73773.8
95547 180492 70182.2
91573.8 178774 63773.8
110450 190277 79371.4
105574 186774 85773.8
171876 172899 69256.6
175874 167774 70773.8
114635 193821 72546.2
119650 193774 77773.8
124862 194067 84319
122774 193962 97773.8
90645.8 175756 69109.4
87485.8 172774 63773.8
96088.6 182167 81362.2
88773.8 175978 78773.8
175488 156881 66181.4
175234 150774 61773.8
171403 162027 57695.8
169962 161774 50773.8
174351 161255 65489.4
178058 158774 74773.8
87259.4 172349 70154.6
82773.8 167290 73773.8
85195.8 170021 71819.4
81773.8 165018 67773.8
133671 196332 111557
125774 195974 109774
113541 191732 97354.6
107774 190774 102226
171137 157575 52696.2
170014 155774 45773.8
177933 158012 73438.6
181026 154774 79773.8
179863 166898 105748
182022 159774 103774
176843 173976 98505.8
181914 164774 98773.8
105340 187401 85172.6
97773.8 184010 92773.8
115038 194017 110073
[...]
CELL_DATA 1581
SCALARS radius float
LOOKUP_TABLE default
2.122e-314
100
100
1.15223
0.21619
1.14968
0.846374
0.969821
0.0630171
0.969521
0.724899
0.809473
0.839587
0.185727
0.835886
0.198257
0.229005
0.802609
0.0539572
0.723669
0.421235
0.75908
0.23752
0.829444
0.30329
0.705458
0.0713857
0.420551
0.28568
0.745345
0.820526
0.255767
0.123321
0.296335
0.108273
0.744125
0.389662
0.231792
0.110857
0.287797
0.0685731
0.388953
0.0515614
0.82011
0.282576
0.686701
0.441193
0.773945
0.0566725
0.281814
0.270665
0.122328
0.614771
0.4436
0.20437
0.341807
0.391975
0.703909
0.713502
0.461287
0.428138
0.194873
0.0457583
0.427964
0.0746028
0.609012
0.0585086
0.430662
0.0831106
0.223404
0.313233
0.200215
0.0982614
0.309976
0.696527
0.207662
0.450665
0.120852
0.068071
0.713296
0.695685
0.106973
0.469344
0.637865
0.094655
0.226496
0.452041
0.204127
0.201444
0.410057
0.191915
0.593328
0.373269
0.303177
0.600612
0.209675
0.0675207
0.372531
0.0595083
0.391518
0.590545
0.497838
0.0695661
0.590223
0.565759
0.290528
0.420565
0.474306
0.0650625
0.18939
0.149667
0.634144
0.141982
0.44356
0.462802
0.186967
0.588624
0.13002
0.0857963
0.402844
0.294894
0.285844
0.446879
0.146258
0.415196
0.141155
0.173101
0.283062
0.163785
0.35223
0.101056
0.631585
0.154573
0.173933
0.431052
0.180789
0.0715762
0.495845
0.29685
0.377821
0.263892
0.561631
0.423529
0.216312
0.158129
0.27399
0.132555
0.252236
0.145674
0.284663
0.080415
0.386622
0.420264
0.12035
0.22901
0.471433
0.335978
0.150708
0.0662376
0.227148
0.0624668
0.137832
0.158797
0.245562
0.165795
0.269336
0.345874
0.268262
0.288832
0.240035
0.0723549
0.344815
0.1735
0.54289
0.392964
0.221675
0.220259
0.445536
0.104631
0.203188
0.116347
0.630267
0.22192
0.549836
0.625824
0.160324
0.365193
0.185481
0.0975185
0.181854
0.0733118
0.217518
0.0845283
0.376406
0.466351
0.131215
0.427064
0.190172
0.136474
0.370328
0.108727
0.539963
0.163939
0.236642
0.190759
0.61986
0.0890278
0.415504
0.169683
0.203007
0.0948144
0.199188
0.0761129
0.293194
0.315775
0.195645
0.527697
0.208203
0.164959
0.1797
0.0810255
0.426089
0.353428
0.165789
0.603854
0.261963
0.408032
0.322334
0.0832939
0.603326
0.0640956
0.407504
0.0818477
0.219139
0.313867
0.353437
0.257018
0.136796
0.228024
0.269763
0.593664
0.195732
0.107214
0.218889
0.337893
0.147373
0.0830788
0.52701
0.388112
0.209602
0.213269
0.339409
0.148396
0.245017
0.221921
0.380248
0.120371
0.286269
0.588889
0.171084
0.500338
0.265557
0.310428
0.152916
0.472657
0.269895
0.187554
0.289736
0.331866
0.196587
0.188089
0.582423
0.168968
0.372489
0.0753861
0.210082
0.111206
0.216628
0.186079
0.30643
0.130308
0.370493
0.146884
0.191265
0.169041
0.29273
0.120863
0.334221
0.0753201
0.163824
0.07714
0.471971
0.0754132
0.218979
0.285518
0.223824
0.111122
0.258906
0.327478
0.233956
0.108694
0.339725
0.0802936
0.283385
0.0960574
0.579225
0.364803
0.383917
0.291065
0.244129
0.137349
0.315346
0.496355
0.416103
0.263333
0.256414
0.0901528
0.229406
0.0981815
0.287293
0.300539
0.277644
0.355529
0.208428
0.075016
0.298973
0.123946
0.259513
0.228958
0.227083
0.487472
0.186131
0.378163
0.395272
0.0924245
0.411699
0.127776
0.179844
0.247554
0.164966
0.39762
0.168964
0.36636
0.169932
0.17908
0.382619
0.284845
0.332956
0.195353
0.211962
0.188917
0.360656
0.311162
0.165908
0.0903276
0.281784
0.278474
0.248342
0.183875
0.248677
0.152026
0.22768
0.104481
0.257733
0.135522
0.34884
0.141999
0.269211
0.0875836
0.171805
0.0932462
0.350123
0.135846
0.318334
0.326375
0.201279
0.0575847
0.214819
0.198127
0.106074
0.844616
0.146402
0.170621
0.141118
0.129979
0.14046
0.842606
0.162516
0.0749034
0.157029
0.0620756
0.183387
0.0836393
0.148684
0.105115
0.128575
0.104303
0.221552
0.0368662
0.102745
0.161033
0.188512
0.0587032
0.15839
0.122086
0.169612
0.126638
0.224857
0.800066
0.163581
0.12429
0.180417
0.702294
0.156881
0.828727
0.0938634
0.0747804
0.149745
0.0952209
0.418917
0.104419
0.241483
0.211519
0.10721
0.0980951
0.417117
0.0429267
0.124972
0.0522569
0.120111
0.108959
0.23385
0.819056
0.12857
0.13734
0.367224
0.113715
0.207725
0.373519
0.188806
0.0661316
0.232074
0.189924
0.17809
0.612704
0.132681
0.17584
0.264003
0.168728
0.160826
0.129384
0.165883
0.702627
0.10169
0.742294
0.135782
0.0708958
0.20883
0.0788007
0.216211
0.146145
0.132297
0.230405
0.164743
0.0721084
0.140877
0.431021
0.193252
0.19106
0.248832
0.128076
0.178259
0.0969479
0.162371
0.139245
0.197049
0.609384
0.154924
0.45725
0.124568
0.231878
0.182844
0.118378
0.174522
0.28095
0.179745
0.0781645
0.169131
0.448357
0.111838
0.693852
0.138469
0.11872
0.158623
0.148453
0.169884
0.453543
0.113319
0.0688801
0.19029
0.144786
0.176199
0.690577
0.16759
0.125044
0.185552
0.121008
0.273258
0.425661
0.10796
0.46551
0.13595
0.126722
0.165106
0.123223
0.264637
0.590732
0.139768
0.065657
0.14533
0.195902
0.222499
0.0840507
0.166226
0.441559
0.146579
0.0716193
0.163112
0.102232
0.215059
0.496342
0.10352
0.36366
0.25854
0.0518406
0.163385
0.059493
0.1429
0.123609
0.121747
0.123661
0.274966
0.234152
0.133958
0.0917813
0.133442
0.121131
0.368213
0.194221
0.17664
0.0593049
0.155298
0.580416
0.203389
0.0798095
0.119106
0.490664
0.155794
0.380492
0.139342
0.103233
0.183967
0.265957
0.165627
0.107045
0.162423
0.0844284
0.130269
0.0948609
0.1466
0.127878
0.156293
0.488799
0.110306
0.0939028
0.152773
0.222881
0.213394
0.0689778
0.127561
0.131212
0.263568
0.103831
0.172206
0.0565084
0.111722
0.111627
0.132514
0.183123
0.256756
0.083825
0.166716
0.0809877
0.177683
0.202408
0.18677
0.0922256
0.168982
0.134383
0.193904
0.11216
0.249413
0.0744085
0.261576
0.142522
0.22196
0.214775
0.199919
0.054883
0.183865
0.117227
0.135901
0.105521
0.171462
0.416862
0.121375
0.211383
0.224765
0.10294
0.411004
0.100828
0.168427
0.12156
0.193567
0.0879999
0.197742
0.0923162
0.188539
0.117809
0.182687
0.105534
0.202224
0.421848
0.131752
0.191682
0.157224
0.0714191
0.200017
0.122703
0.126882
0.132537
0.178358
0.153049
0.175876
0.163166
0.195849
0.524125
0.133702
0.175938
0.242072
0.0742924
0.134728
0.111024
0.173569
0.141115
0.197275
0.0755781
0.141551
0.383735
0.12505
0.106581
0.18
0.32778
0.149797
0.275014
0.138551
0.0960394
0.155828
0.325506
0.127267
0.173659
0.159198
0.0979264
0.20222
0.135659
0.17214
0.225987
0.146868
0.0738927
0.146934
0.0594522
0.168657
0.187101
0.231318
0.099369
0.16928
0.109167
0.174932
0.138895
0.213252
0.15601
0.277144
0.0926503
0.158769
0.343394
0.223666
0.0978867
0.218398
0.157446
0.237828
0.580104
0.132959
0.0777994
0.275085
0.112015
0.213879
0.152439
0.190145
0.242235
0.187601
0.112315
0.241578
0.201367
0.257841
0.162653
0.183683
0.0732029
0.179723
0.268615
0.15002
0.117734
0.227793
0.164549
0.256861
0.140303
0.225403
0.188013
0.199195
0.169644
0.279529
0.407541
0.127921
0.191788
0.214029
0.148554
0.228257
0.0806016
0.20433
0.130293
0.213125
0.0767453
0.181676
0.208695
0.198807
0.0882171
0.17446
0.169841
0.182073
0.32615
0.22546
0.0907506
0.174225
0.101691
0.206085
0.114638
0.173645
0.167431
0.294082
0.0717994
0.180151
0.190867
0.264385
0.20168
0.207366
0.0922544
0.260586
0.112408
0.191005
0.234571
0.309138
0.193154
0.230865
0.175888
0.181907
0.133067
0.219327
0.252685
0.252638
0.0885912
1.14951
0.207784
0.0980439
0.0514145
0.138805
0.0731177
0.133518
0.0634735
0.131278
0.161998
0.124204
0.0808
0.724565
0.808776
0.085837
0.142967
0.109951
0.105164
0.120716
0.723769
0.10775
0.0896896
0.148156
0.116443
0.162535
0.829128
0.0866494
0.0831734
0.138846
0.704894
0.0943969
0.106427
0.153723
0.0976556
0.134377
0.0866525
0.282998
0.820178
0.088845
0.0637618
0.100335
0.293178
0.0937087
0.744888
0.0913052
0.102299
0.22495
0.0783595
0.159837
0.27875
0.100176
0.255619
0.1193
0.683734
0.145344
0.173159
0.118377
0.091401
0.116278
0.685917
0.103508
0.703336
0.0947957
0.123596
0.193268
0.108961
0.151973
0.0704995
0.174328
0.264861
0.107681
0.116225
0.155056
0.133982
0.183023
0.147738
0.158667
0.0928126
0.773149
0.0994076
0.139865
0.0681305
0.154364
0.0555643
0.130717
0.0810495
0.153803
0.130216
0.169457
0.0526131
0.10255
0.0747518
0.110449
0.102405
0.112649
0.0450252
0.14706
0.455889
0.0947741
0.143194
0.149687
0.0616825
0.141542
0.191966
0.144754
0.0927435
0.133563
0.0659014
0.115588
0.0740372
0.132577
0.63691
0.105187
0.154916
0.115581
0.14727
0.145443
0.126233
0.142464
0.406206
0.124384
0.198025
0.150143
0.134282
0.146117
0.0680946
0.141011
0.404137
0.100629
0.0829801
0.127723
0.0905452
0.389897
0.0689262
0.13938
0.108631
0.145489
0.13465
0.173357
0.107222
0.145919
0.632447
0.12686
0.112719
0.135635
0.0801177
0.115163
0.0862982
0.127807
0.116375
0.173437
0.131985
0.13996
0.0748325
0.161008
0.105962
0.349004
0.0940794
0.12776
0.345796
0.105115
0.0633208
0.122478
0.131121
0.131794
0.132192
0.142719
0.472758
0.101359
0.106341
0.114547
0.548734
0.0999179
0.206106
0.110959
0.10059
0.140332
0.0586919
0.115505
0.078714
0.148241
0.0779609
0.122877
0.439281
0.116833
0.541428
0.108823
0.260403
0.118105
0.119448
0.242971
0.113947
0.13273
0.469788
0.102999
0.212045
0.168799
0.339051
0.126444
0.13884
0.166482
0.208384
0.122631
0.0990963
0.172399
0.442019
0.127607
0.125755
0.123808
0.629312
0.104333
0.073884
0.161482
0.157273
0.128544
0.153177
0.167488
0.0622158
0.132364
0.0716653
0.123663
0.413146
0.106703
0.158076
0.181279
0.101034
0.155751
0.14788
0.151366
0.0859273
0.140754
0.0870826
0.194253
0.403938
0.152118
0.083494
0.175172
0.365431
0.125746
0.0952735
0.186291
0.0649763
0.130757
0.538287
0.113485
0.146266
0.160357
0.152031
0.15796
0.163798
0.213928
0.109368
0.149265
0.140127
0.160392
0.141873
0.119378
0.346991
0.133361
0.0597425
0.131681
0.167146
0.141431
0.0718036
0.141457
0.139908
0.155727
0.600673
0.142341
0.144421
0.189251
0.102008
0.163601
0.100752
0.186524
0.37579
0.124095
0.135529
0.179463
0.118113
0.207046
0.0795524
0.133523
0.10307
0.167329
0.130705
0.142076
0.0960135
0.177136
0.124814
0.190665
0.266499
0.175389
0.138055
0.171523
0.0785694
0.144783
0.123406
0.15145
0.172273
0.287085
0.363235
0.143101
0.323802
0.150129
0.0915065
0.15499
0.136406
0.226112
0.152322
0.184198
0.138247
0.204648
0.210361
0.243017
0.156054
0.19798
0.132626
0.229064
0.097724
0.178309
0.209697
0.199338
0.138771
0.180681
0.377962
0.137381
0.413246
0.113796
0.293594
0.182236
0.18686
0.177034
0.146214
0.205625
0.166811
0.234139
0.122298
0.214583
0.145356
0.176086
0.0798433
0.194418
0.205091
0.236422
0.11429
0.192503
0.138808
0.219256
0.154847
0.208951
0.391536
0.141646
0.377167
0.133147
0.358706
0.144518
0.102842
0.170214
0.0822381
0.158879
0.120979
0.197914
0.352314
0.14706
0.223809
0.263679
0.0849132
0.16149
0.110901
0.152451
0.175937
0.230517
0.144432
0.231243
0.173104
0.236008
0.122979
0.242526
1.14939
0.0768021
0.0556977
0.100686
0.84608
0.0858118
0.136048
0.085259
0.96961
0.0841536
0.0768879
0.130448
0.0925109
0.113721
0.809098
0.090308
0.0412407
0.107982
0.0617243
0.118899
0.0795803
0.0907349
0.802339
0.0804188
0.0510921
0.168053
0.155719
0.0844032
0.220328
0.0876448
0.128228
0.138168
0.0576857
0.160076
0.146912
0.0883769
0.0420477
0.105009
0.247823
0.0936876
0.0932824
0.148731
0.076384
0.114628
0.415281
0.0984404
0.252209
0.0883093
0.0950213
0.147752
0.743805
0.0809526
0.218515
0.0982815
0.0960646
0.107399
0.107456
0.110514
0.773594
0.0857567
0.77272
0.091554
0.219645
0.117802
0.105312
0.144093
0.364607
0.101688
0.460311
0.0853292
0.0478523
0.130177
0.227174
0.154429
0.33842
0.105536
0.217935
0.108248
0.160967
0.125148
0.075094
0.148268
0.0975742
0.123134
0.104945
0.149111
0.184594
0.10355
0.184405
0.120625
0.099903
0.131276
0.0959788
0.127074
0.117764
0.119832
0.101222
0.0964002
0.113097
0.167105
0.303599
0.121659
0.0772819
0.129587
0.114153
0.11047
0.110969
0.148877
0.103833
0.174011
0.157774
0.115553
0.599947
0.0895652
0.202824
0.0956264
0.176954
0.110506
0.0808488
0.141883
0.130487
0.144978
0.0709953
0.11614
0.0926254
0.171141
0.0670799
0.140024
0.365931
0.0973358
0.387778
0.098684
0.112224
0.118313
0.441402
0.108214
0.0960922
0.117576
0.247939
0.0910032
0.25196
0.108751
0.0737187
0.135554
1.11646
0.0919055
1.11625
0.1537
1.11186
0.157336
1.10869
1.11358
0.195712
1.10376
0.262639
0.674205
1.01258
0.17135
0.670496
0.426011
0.986052
0.0779019
0.425141
0.224284
0.403223
0.107565
0.985625
0.642012
0.309985
0.117919
0.393284
0.157624
0.638829
0.114055
0.978451
0.107314
0.637818
0.406465
0.954487
0.0934629
0.404811
0.080402
0.635059
0.13565
0.953573
0.324002
0.305488
0.945886
0.275016
0.160627
0.631615
0.104042
0.320385
0.373913
0.925994
0.215577
0.283841
0.0953431
0.371835
0.978967
0.268118
0.16544
0.288374
0.92157
0.224584
0.140388
0.365041
0.15459
0.625302
0.208407
0.21703
0.228105
0.229654
0.161737
0.26513
0.214381
0.222046
0.119757
0.920895
0.147203
0.356881
0.909647
0.304625
0.21849
0.32718
0.199725
0.618434
0.128991
0.320356
0.104335
0.909189
0.529416
0.844917
0.103707
0.617461
0.112307
0.214803
0.128119
0.296876
0.0939365
0.528428
0.147984
0.843401
0.603296
0.251101
0.227527
0.59231
0.318032
0.486843
0.168781
0.277447
0.362207
0.820518
0.152804
0.230613
0.127279
0.311086
0.0957999
0.359959
0.0996884
0.591367
0.11577
0.819749
0.142522
0.482737
0.194713
0.584245
0.332299
0.545959
0.166651
0.294249
0.208029
0.335125
0.809335
0.274697
0.122517
0.808398
0.129517
0.325607
0.146839
0.325451
0.163554
0.476396
0.790915
0.322493
0.24425
0.270987
0.203116
0.231138
0.191126
0.538037
0.416461
0.329851
0.17864
0.787866
0.124925
0.316119
0.232064
0.267273
0.209392
0.293722
0.126384
0.412545
0.392142
0.754053
0.122915
0.388075
0.16737
0.532583
0.234682
0.385495
0.223066
0.291577
0.186275
0.373207
0.167928
0.751267
0.73363
0.30782
0.181226
0.525494
0.264306
0.338608
0.138759
0.731972
0.224637
0.343826
0.173443
0.288246
0.14959
0.715534
0.623548
0.498533
0.190213
0.517052
0.717707
0.282247
0.191481
0.61747
0.147589
0.494184
0.381449
0.564538
0.205207
0.360527
0.227674
0.501897
0.373408
0.409408
0.29842
0.535249
0.190037
0.395278
0.254902
0.478948
0.39378
0.451899
1.11559
0.135088
1.11284
0.140096
0.132413
1.11124
1.10975
0.176657
0.119853
0.25404
0.108803
0.247206
0.132499
0.14716
0.133633
0.233436
0.160023
0.20506
0.14816
0.161905
1.01188
0.129406
0.0886625
0.163041
0.66525
0.191478
0.123966
0.172301
0.161745
0.294551
0.164244
0.189931
0.276056
0.165315
0.396786
0.145651
0.14404
0.262311
0.133159
0.250335
0.0656347
0.161792
0.166636
0.383048
0.15328
0.229492
0.115403
0.205557
0.333208
0.267809
0.108889
0.329286
0.144539
0.252968
0.635489
0.141486
0.396896
0.156258
0.169618
0.313544
0.249513
0.248204
0.628435
0.15587
0.131502
0.205464
