# vtk DataFile Version 3.0
Tree
ASCII
DATASET POLYDATA
POINTS 1582 float
162774 225274 273.8
162774 225274 10273.8
141774 225774 23773.8
134774 213034 31773.8
136874 216856 29373.8
138774 209222 53773.8
137596 213955 38645.8
118774 204022 49773.8
140647 209667 49228.6
155774 197866 67773.8
139336 209355 52410.2
131774 198014 74773.8
121717 204396 49293
107774 194006 60773.8
151130 200783 64586.6
151774 195942 80773.8
154381 198741 66817.8
170002 181774 71773.8
113909 197639 59057
108774 188042 83773.8
165315 186864 70287
171234 183774 92773.8
131543 199549 73886.6
124466 193774 90773.8
168596 183301 71327.8
173222 165774 63773.8
109126 194017 61021
91573.8 178774 69773.8
126589 195506 85707.8
139774 195998 103774
168511 185195 82429.8
178102 170774 86773.8
171177 182845 89865.8
179186 172774 103774
171799 168546 64133.4
171982 151774 51773.8
125103 194293 89253.8
115774 194002 109774
172795 166605 63881.8
179774 148774 72345.8
94166.6 179171 68042.6
80773.8 162774 73593.8
92351.4 178893 69254.2
87773.8 177254 91773.8
178051 172951 103516
181998 164774 114774
138314 195585 99175.8
154774 193998 105774
177227 153055 68183.4
179026 134774 63773.8
89147 177745 85017.8
98773.8 185998 95773.8
139336 195874 102395
140774 195998 122774
179010 150058 71097
183982 148774 87773.8
180896 165816 110693
183998 151774 113774
84230.6 165521 71140.2
79637.8 150774 66773.8
81811 163598 72857.8
77773.8 164798 90773.8
87350.6 177258 90688.6
80533.8 175774 104774
118153 194641 107033
114774 198002 129774
141549 195968 121243
144774 195998 134774
152587 193227 105623
165774 189430 112774
95885.8 183522 92547
91773.8 187030 108774
142169 195916 112932
152774 195886 119774
178486 140258 65096.6
183998 126774 78773.8
178672 135934 63294.2
178774 119950 54773.8
182912 155709 114516
183998 144774 126774
81427.4 152935 67252.6
83561.8 137774 61773.8
80276.6 164054 79665.8
77485.8 146774 89773.8
183412 150679 120155
183998 156774 135774
78323 151958 86741.4
77773.8 151774 109042
82267.8 174775 102685
79773.8 165774 117018
178719 128581 59375
183970 127774 38773.8
143032 195982 127467
127774 198050 140774
114465 197209 129076
110774 198050 146774
92044.2 185487 106076
85773.8 182774 120798
183483 145161 126137
181782 132774 138774
183444 148140 122907
183774 129774 118002
151451 195242 119607
163774 191230 131774
136013 196933 133588
139774 197230 153774
182784 139242 129922
181774 126774 128802
183217 142911 127575
183774 143774 141890
183579 144872 137878
183774 153774 149018
181602 135178 137496
177994 133774 151774
77737 148329 88864.2
80773.8 132774 87593.8
83556.2 139767 63113
87637.8 122774 60773.8
78948.2 150698 105855
81497.8 147774 116774
86194.6 128441 62712.6
87533.8 120774 68773.8
111086 196037 142146
103774 185774 157962
87886.6 182386 118936
88773.8 174774 135890
181728 133495 138390
175998 119774 137774
89133.8 183317 115078
95773.8 190858 134774
78760.6 151076 100121
81773.8 136774 110894
163361 189523 112383
173974 182774 123774
87427.4 175908 126319
85485.8 165774 130774
181627 128460 127865
178774 114774 119954
107233 188218 155394
107774 182774 166866
137535 197506 150144
131034 199774 166774
108389 190563 151419
116774 193950 165774
177677 133173 149348
168774 126774 161982
145285 195679 133483
153774 193774 147998
80894.6 135014 88661.8
87493.8 118774 92773.8
133504 198912 160454
141082 195774 171774
87205 124474 61355.4
92773.8 115522 48773.8
104812 186507 157191
97773.8 173774 155974
177717 123890 137959
169774 117774 149990
170829 184876 121818
171978 184774 131774
182990 149246 146049
178774 148774 162026
86122.2 166830 129991
86285.8 153774 133774
176143 120333 137335
170774 108774 133962
113869 193309 158794
121774 199774 160006
82591.4 147957 63827.8
85637.8 142774 50773.8
183562 156388 131697
182014 165774 136774
88005.4 121164 67977.4
93485.8 108774 74773.8
178352 116073 122155
174006 103774 118774
179772 150161 158979
177774 157774 171074
82041.8 139655 109648
89497.8 129774 122774
170506 127381 158261
163974 118774 159774
90526.6 115465 71103.8
95553.8 103774 62773.8
175147 106382 118567
173774 98681.8 110774
84986.2 124945 91211.4
87549.8 121774 105774
108608 183684 165322
114774 178774 177966
169096 127412 161374
163774 128774 173318
94121 187767 130996
96773.8 183326 145774
169519 127403 160440
170774 136774 169962
99885 177594 156339
102326 166774 165774
174348 104556 118712
167774 100282 127774
87575.4 119394 92367
94345.8 107774 93773.8
172387 183970 129555
177774 178774 140810
177913 154269 167795
173774 151774 177890
172101 184533 131108
169774 187258 141774
177303 157247 170742
173986 164774 178774
151337 193658 146651
154774 191182 159774
87706.2 121457 100212
96541.8 109774 110774
182953 153063 147652
181218 167774 151774
95223 105275 65439.4
100118 95773.8 62773.8
174295 101608 113735
167290 92773.8 115774
89375 131750 122620
95773.8 125774 133970
173376 98927 111444
169034 89773.8 104774
98407.4 174920 156083
92773.8 166774 147970
164357 129320 172423
159774 132282 183774
102648 167716 164435
106266 157774 171774
162615 130446 176737
167206 141774 182774
93909.8 109511 92833.8
104290 97773.8 89773.8
112525 178812 174354
114130 166774 183774
174331 152728 176576
169774 153774 187974
127883 198457 139795
120774 200002 144774
174012 163441 178173
167774 169774 189970
152368 192915 150587
164026 188774 152774
97017 110642 109307
103774 103774 114574
153704 191280 158973
151774 188542 171774
89461 130367 122727
93705.8 119774 121774
180331 165586 151575
176066 176774 155774
99927.8 96574.2 62786.6
105034 87773.8 59773.8
173655 98755.4 110975
177186 97773.8 95773.8
99044.2 108581 110887
100774 110298 121774
170030 91652.6 105175
167774 85541.8 94773.8
94606.2 127807 132445
99773.8 128774 144970
102355 105216 113468
109518 96773.8 108774
106060 159898 171367
111774 153774 183026
101937 100243 89060.2
107502 92773.8 78773.8
175381 96357.4 98958.2
174774 91593.8 89773.8
169353 89819.4 102055
156774 81449.8 100774
176100 174594 156110
171314 181774 161774
168198 169217 187037
158774 178006 191774
151957 188424 171341
150774 185774 181202
101337 109064 119083
109122 105774 129774
109145 156591 177663
111590 142774 177774
103348 104207 114242
111582 98773.8 119774
164335 86689 102929
157774 83601.8 110774
103502 90413.8 60677.8
116010 79773.8 66773.8
95423.4 126384 133513
100774 118774 133978
98223.4 128484 141213
97773.8 142774 152966
167640 86029.4 95416.2
163774 80773.8 85321.8
111764 153695 182548
116774 147774 189958
111399 147190 178715
116338 139774 184774
97335.4 139755 149209
93773.8 148774 148802
173994 164374 178593
173206 173774 172774
115271 149550 187735
119554 152774 195774
175077 91785 90320.6
175774 83773.8 75965.8
172518 172381 174205
166774 181950 171774
165851 81895.4 86490.2
166774 78773.8 77957.8
111395 144119 177209
111006 133774 169774
108213 106827 128905
114774 105774 138890
111216 139360 173789
104774 139774 163322
111169 99672.2 119684
119518 95773.8 125774
95697 143904 149022
90773.8 146774 140026
165751 79026.6 80104.6
161774 72773.8 71961.8
116323 148307 189291
123734 138774 196774
114939 141423 181749
121518 128774 181774
172961 169979 175522
165774 178774 181114
113329 106618 137438
117106 109774 147774
114340 106027 138454
123774 98773.8 137238
118680 102691 137895
125774 102774 145326
117224 96577.8 122595
128774 89541.8 121774
115066 108070 142192
110214 115774 146774
125011 91451.8 120941
130774 85593.8 113774
86661.4 162037 132802
89657.8 157774 142774
124559 103311 144798
130774 106774 155890
128123 88288.6 117071
137774 85565.8 119774
111264 114674 146517
108358 122774 153774
117209 109502 147387
121774 111118 155774
133335 86818.2 118531
139774 81673.8 110774
94350.6 147313 148868
95553.8 156774 153774
129979 86402.2 114763
128774 83581.8 103774
111467 134329 170369
113774 123774 163990
127344 90267.4 121457
132774 92773.8 131958
130052 83950.2 105481
135578 80773.8 94773.8
115020 125048 164999
118774 117510 160774
113954 127833 166611
122774 119774 170886
128956 106621 154139
129774 112358 164774
137090 215985 32155.4
143774 211986 34773.8
134682 214527 30969.8
126466 209774 34773.8
132105 210210 44597
131598 208774 50773.8
127642 208159 45469.4
120258 206774 41773.8
131100 208717 49608.2
126774 204774 57889.8
143742 206010 57723
142774 205402 61773.8
119617 202064 53613.8
121774 200774 61325.8
120247 202764 52317.4
111558 199774 51773.8
130338 201893 65439.4
125774 199182 68773.8
126391 199793 67492.6
118774 196774 67957.8
130699 201190 67973.8
141774 200774 71953.8
152617 197476 73533.4
159774 192034 78773.8
125959 199365 68389.4
122774 195962 73773.8
131704 198474 74507.8
135774 196070 80773.8
158323 193175 79057
162774 189890 85773.8
108179 194009 60847.8
99773.8 189254 55773.8
107674 190387 72307.4
104426 187774 74773.8
152027 196402 78601.8
143774 196014 83773.8
105071 188216 74807.8
102774 185894 79773.8
97835.8 185049 62166.6
93773.8 182774 60809.8
104619 187907 74784.2
97569.8 182774 74773.8
127229 196429 81439.4
118774 191990 84773.8
169557 178875 69169.4
175814 171774 73773.8
124657 193930 90317.8
115774 191950 94773.8
95267.4 180935 66279.8
87773.8 175082 63773.8
174861 171798 72873.8
177774 165774 74505.8
108230 188597 83261.8
107774 188014 91773.8
172788 158819 60127
174062 153774 60773.8
170745 171773 64305.8
169874 165774 52773.8
172481 156142 56952.6
170774 159126 49773.8
89912.6 177428 77785.4
84773.8 171954 81773.8
121652 194600 100914
125774 195218 107774
116961 192651 95225
110774 191874 99773.8
172083 152421 52031
171774 149094 46773.8
177297 166700 74802.6
179986 160774 79773.8
178905 170810 105669
181998 162774 102774
88464.6 177560 87173
83773.8 171774 88969.8
125015 195239 107539
127774 195998 114774
116121 195493 114349
110750 195774 116774
116487 194193 108952
105774 192042 108774
108107 192329 107982
101774 189942 102774
144332 194724 100300
153774 193982 94773.8
146250 196130 82222.2
146774 195998 91773.8
127731 195755 114419
130774 195998 121774
181070 165185 103643
181998 160774 91773.8
154118 193767 105729
162774 190062 102774
[...]
CELL_DATA 1581
SCALARS radius float
LOOKUP_TABLE default
2.122e-314
100
100
1.15131
1.15072
0.132642
0.98319
0.826599
0.758878
0.800717
0.0603523
0.75875
0.824094
0.10322
0.792542
0.244191
0.0659551
0.792389
0.812939
0.259893
0.427577
0.746754
0.148082
0.7492
0.425359
0.106565
0.109641
0.812274
0.619502
0.565126
0.740762
0.215031
0.0782119
0.740472
0.382522
0.212417
0.158321
0.616036
0.0615555
0.38199
0.461558
0.757806
0.0578832
0.461254
0.0634716
0.739444
0.484202
0.403128
0.286561
0.315336
0.427825
0.243486
0.0671335
0.483772
0.272002
0.15048
0.184305
0.72986
0.701895
0.444853
0.0668775
0.701692
0.227139
0.115844
0.597725
0.21324
0.0744262
0.438486
0.378512
0.175962
0.0968152
0.426166
0.439199
0.293622
0.152692
0.302919
0.296299
0.121255
0.727492
0.131371
0.436578
0.136506
0.245107
0.690936
0.719728
0.230182
0.601602
0.478516
0.207149
0.141443
0.211278
0.255003
0.335589
0.359633
0.0651348
0.595011
0.202939
0.404538
0.0637568
0.712735
0.713708
0.21013
0.279312
0.126877
0.212645
0.329949
0.503189
0.469691
0.613601
0.507925
0.504438
0.138901
0.332559
0.401644
0.144659
0.598801
0.42436
0.120249
0.0973012
0.200742
0.207232
0.401931
0.139022
0.585053
0.0973269
0.33807
0.0663225
0.331677
0.340738
0.259793
0.208089
0.463709
0.253921
0.335779
0.142735
0.321942
0.0810949
0.502486
0.546454
0.265568
0.112689
0.313903
0.566609
0.245521
0.17552
0.384468
0.0752888
0.334321
0.147942
0.593914
0.141415
0.296147
0.0858992
0.20219
0.0765209
0.545953
0.194748
0.297265
0.148621
0.312195
0.32395
0.455266
0.0999293
0.250548
0.0750758
0.190956
0.165409
0.19718
0.1586
0.429486
0.200967
0.144586
0.0725394
0.401142
0.491474
0.167793
0.101193
0.448538
0.0920054
0.459197
0.333189
0.24058
0.387139
0.186878
0.249214
0.469113
0.288884
0.56895
0.0906198
0.243453
0.0814286
0.280655
0.133008
0.216794
0.282921
0.242965
0.237944
0.530451
0.0746864
0.246958
0.265502
0.116939
0.259334
0.220062
0.392347
0.294653
0.0795802
0.256812
0.13814
0.386554
0.0977259
0.321397
0.564972
0.1417
0.0824676
0.322159
0.10836
0.368635
0.453011
0.20761
0.264676
0.414559
0.281974
0.4132
0.206736
0.166743
0.100892
0.262552
0.520412
0.159534
0.173916
0.199915
0.09333
0.261601
0.125798
0.214221
0.0981901
0.290972
0.0841609
0.208156
0.277219
0.323697
0.302876
0.175604
0.0833345
0.558916
0.0906119
0.300148
0.066803
0.26325
0.0983686
0.319072
0.0851076
0.341875
0.0562512
0.281226
0.426954
0.455801
0.102718
0.411073
0.235414
0.383982
0.417429
0.172056
0.202446
0.507775
0.175973
0.217751
0.128071
0.261721
0.303213
0.346458
0.199532
0.290596
0.130751
0.267163
0.0819956
0.288062
0.0997477
0.454203
0.31937
0.458057
0.0687407
0.416807
0.168469
0.284779
0.128808
0.303726
0.0788886
0.232423
0.120073
0.380027
0.157253
0.327912
0.30684
0.154471
0.41481
0.285714
0.141121
0.355332
0.0705059
0.322578
0.164965
0.290043
0.0941113
0.2576
0.179073
0.22703
0.290644
0.195705
0.0968093
0.413045
0.437478
0.201887
0.376159
0.25835
0.0793537
0.415846
0.275196
0.288543
0.151318
0.276274
0.0958113
0.286515
0.130523
0.276329
0.259348
0.252625
0.34738
0.347072
0.0779575
0.346067
0.309977
0.226769
0.117379
0.412705
0.31278
0.223792
0.377578
0.224559
0.168239
0.222169
0.109337
0.305375
0.303325
0.295953
0.110907
0.308061
0.182382
0.172596
0.196381
0.272945
0.191747
0.239811
0.107884
0.291095
0.0951774
0.374116
0.105591
0.21649
0.138199
0.263611
0.245111
0.249794
0.311799
0.280415
0.148868
0.274699
1.14871
0.19977
0.0663312
0.126865
0.825408
0.1346
0.824633
0.116516
0.0668978
0.112484
0.800195
0.0789063
0.821698
0.0937367
0.822105
0.159297
0.201647
0.753307
0.153106
0.166434
0.14578
0.751483
0.188027
0.190637
0.0508462
0.151213
0.0499979
0.146158
0.083541
0.176331
0.0470356
0.106677
0.215212
0.192784
0.173245
0.113127
0.150873
0.186945
0.0855393
0.811957
0.12122
0.118239
0.747838
0.131801
0.409087
0.204069
0.0506914
0.156569
0.811052
0.102953
0.0725659
0.191941
0.0792574
0.176097
0.105738
0.203297
0.403217
0.142693
0.158385
0.164224
0.452646
0.168393
0.606638
0.213136
0.124145
0.124393
0.0865419
0.149256
0.0777265
0.187595
0.733757
0.209968
0.236769
0.105129
0.0611169
0.211447
0.0958529
0.596902
0.0640588
0.211295
0.19258
0.131832
0.390786
0.180031
0.0998995
0.161378
0.0579245
0.209988
0.196581
0.118404
0.0612748
0.173449
0.127894
0.14622
0.0766234
0.242585
0.170554
0.210757
0.0970321
0.202842
0.0472495
0.183264
0.131681
0.174498
0.124491
0.157482
0.109319
0.442642
0.140385
0.157379
0.0659643
0.252429
0.0980702
0.228972
0.0646411
0.125932
0.152796
0.180327
0.101382
0.157663
0.0975786
0.170251
0.138591
0.240554
0.189631
0.115449
0.689156
0.136488
0.0937813
0.119765
0.0864162
0.249006
0.151513
0.156042
0.0997974
0.203017
0.324381
0.147893
0.133708
0.225128
0.164854
0.211343
0.587658
0.175062
0.0563316
0.141753
0.108493
0.597612
0.083075
0.221292
0.0926012
0.125994
0.112539
0.15794
0.323041
0.147451
0.138844
0.160603
0.110413
0.461612
0.0639318
0.14385
0.186245
0.239074
0.331035
0.13318
0.111753
0.42176
0.318671
0.130249
0.142128
0.24476
0.119313
0.500233
0.090174
0.150506
0.0647314
0.134047
0.125466
0.144544
0.306527
0.128657
0.137583
0.16203
0.497909
0.120204
0.241347
0.268285
0.450249
0.145586
0.106266
0.259771
0.592765
0.106658
0.239469
0.230462
0.109352
0.138935
0.050762
0.16623
0.37173
0.188111
0.141722
0.286114
0.13229
0.186823
0.147582
0.155342
0.120368
0.168413
0.0718008
0.17142
0.247569
0.133065
0.12431
0.445333
0.176461
0.201962
0.107957
0.454529
0.10633
0.191616
0.45655
0.118521
0.102883
0.151892
0.272858
0.155962
0.110348
0.214688
0.267427
0.143915
0.0607936
0.164004
0.075663
0.284339
0.100617
0.207052
0.119845
0.185618
0.559533
0.172784
0.0862042
0.126956
0.441363
0.132774
0.525362
0.162045
0.238156
0.211647
0.0573054
0.134771
0.227802
0.137645
0.154375
0.248686
0.215266
0.1523
0.0790085
0.167092
0.123605
0.16518
0.0821922
0.131808
0.118662
0.230545
0.447787
0.16027
0.126651
0.217027
0.518283
0.119871
0.236633
0.169252
0.17618
0.189192
0.0973792
0.155247
0.212799
0.175714
0.189097
0.216698
0.144893
0.265642
0.290259
0.137253
0.242364
0.15883
0.101495
0.190363
0.136159
0.215668
0.0851683
0.20815
0.0937239
0.181088
0.0906231
0.262079
0.0645378
0.200235
0.158031
0.241325
0.254438
0.200563
0.556694
0.127541
0.127569
0.194909
0.31126
0.15218
0.155559
0.217506
0.592792
0.107846
0.158372
0.217325
0.24648
0.201003
0.172822
0.240482
0.0727665
0.151877
0.343624
0.211941
0.451364
0.120415
0.185069
0.205162
0.16903
0.171014
0.182317
0.218362
0.179033
0.281388
0.109827
0.184197
0.0695002
0.199104
0.0541125
0.152225
0.14779
0.267084
0.103609
0.195947
0.158886
0.370534
0.0905225
0.222127
0.0660813
0.155662
0.20451
0.204404
0.362602
0.147327
0.166089
0.23929
0.159118
0.232357
0.149622
0.233755
0.217319
0.221204
0.25496
0.165417
0.402388
0.172589
0.23405
0.223752
0.15514
0.208678
0.150755
0.166335
0.0652939
0.169424
0.106154
0.218733
0.0950707
0.183616
0.163194
0.29197
0.275708
0.154784
0.142297
0.167415
0.104321
0.238643
0.121392
0.258865
0.144602
0.258684
0.0992864
0.148524
0.207271
0.211149
0.177587
0.254321
0.149037
0.235968
1.14857
0.0832137
0.0719422
0.19661
0.0594027
0.194786
0.0534417
0.193436
0.0707638
0.190226
0.0976652
0.181226
0.0597711
0.0960534
0.0960508
0.130294
0.10481
0.151233
0.0781855
0.152753
0.0956051
0.139083
0.0639745
0.147316
0.238554
0.0995053
0.110841
0.160323
0.0914242
0.124424
0.104543
0.125564
0.790828
0.135239
0.0790355
0.153646
0.0644462
0.119628
0.0563257
0.101038
0.0367394
0.117045
0.0699465
0.124877
0.0924385
0.5643
0.128663
0.198428
0.195338
0.101471
0.122373
0.117567
0.112016
0.114468
0.0685341
0.121824
0.0729996
0.13347
0.0877557
0.757414
0.123153
0.153162
0.0970486
0.482466
0.133092
0.161908
0.0980473
0.143507
0.112871
0.149435
0.0434568
0.1482
0.134137
0.160312
0.126606
0.172274
0.479192
0.131448
0.123225
0.126713
0.253229
0.157215
0.242852
0.124195
0.728917
0.0897054
0.13385
0.142855
0.078769
0.150326
0.0526592
0.112097
0.0642958
0.138375
0.0717082
0.124343
0.0955005
0.596086
0.440982
0.0990568
0.223332
0.101858
0.0731312
0.129117
0.150789
0.20469
0.19379
0.117233
0.272005
0.118542
0.10208
0.133229
0.0852499
0.115304
0.125458
0.187591
0.143042
0.154313
0.388683
0.195595
0.477276
0.0947263
0.712905
0.106992
0.0591866
0.12243
0.0750051
0.148165
0.0817252
0.131692
0.385062
0.11758
0.140847
0.104637
0.108449
0.191932
0.0929375
0.133944
0.103221
0.120476
0.142741
0.186926
0.145933
0.197715
0.148495
0.168303
0.135229
0.158573
0.0859114
0.138215
0.127374
0.178237
0.322859
0.141503
0.581576
0.133115
0.583892
0.105982
0.161571
0.211394
0.0860993
0.119825
0.103014
0.239321
0.396294
0.115277
0.239864
0.117902
0.223996
0.141267
0.370633
0.180867
0.230158
0.114853
0.127151
0.183808
0.104332
0.129008
0.12811
0.165752
0.0720873
0.138302
0.0751775
0.156445
0.0955835
0.149548
0.255739
0.137231
0.104152
0.125059
0.0808893
0.175305
0.232341
0.128475
0.0666118
0.113009
0.109963
0.147299
0.567928
0.0997022
0.112418
0.17491
0.130702
0.158438
0.105253
0.161617
0.162803
0.180434
0.0501926
0.113771
0.304014
0.132574
0.136118
0.135994
0.467103
0.109724
0.106773
0.174451
0.0687971
0.154134
0.153946
0.220319
0.134044
0.173889
0.105558
0.137814
0.131929
0.202962
0.118271
0.154035
0.151295
0.186741
0.143959
0.186977
0.0628492
0.148645
0.127115
0.127297
0.157531
0.225526
0.172473
0.177198
0.411463
0.116575
0.164626
0.179261
0.105206
0.159967
0.0717813
0.173181
0.142595
0.176102
0.279297
0.141749
0.14767
0.129959
0.111186
0.196994
0.380804
0.136428
0.147793
0.154251
0.250792
0.12864
0.102522
0.198918
0.0785849
0.15164
0.271568
0.130327
0.0939136
0.147031
0.118232
0.155672
0.322942
0.184473
0.124013
0.181344
0.148918
0.190131
0.0833334
0.169509
0.339549
0.134607
0.155616
0.162605
0.182859
0.161476
0.151796
0.17674
0.103608
0.172864
0.196387
0.139076
0.132232
0.140632
0.16283
0.172461
0.504863
0.130841
0.455808
0.112107
0.106291
0.174745
0.128734
0.181586
0.169527
0.182594
0.15783
0.215269
0.267116
0.169204
0.317637
0.14754
0.0862954
0.175631
0.129712
0.178741
0.117656
0.159814
0.143072
0.195598
0.103572
0.207392
0.0868277
0.189833
0.182738
0.201961
0.169496
0.242058
0.122497
0.124583
0.113298
0.189298
0.263442
0.173658
0.150158
0.210949
0.242949
0.142664
0.120558
0.211418
0.0894593
0.157219
0.153104
0.21625
0.113259
0.154501
0.179848
0.172679
0.147217
0.193762
0.288561
0.164476
0.116805
0.194223
0.192495
0.188131
0.267474
0.17919
0.205349
0.205574
0.127513
0.225833
0.199961
0.210408
0.106587
0.147367
0.170024
0.173596
0.151159
0.229783
0.199951
0.233522
0.145821
0.211376
0.103836
0.0973399
0.0910863
0.0938312
0.119875
0.0894591
0.80045
0.0800481
0.758093
0.0806766
0.758397
0.0848042
0.0947974
0.17213
0.0896769
0.114236
0.751123
0.0847603
0.182373
0.0951907
0.792144
0.0772957
0.0573098
0.144366
0.257796
0.0749771
0.0507392
0.114328
0.0701017
0.10333
0.0597905
0.131225
0.181294
0.106451
0.0725333
0.123379
0.811604
0.0887147
0.134825
0.120551
0.188188
0.104712
0.0618637
0.129599
0.7396
0.0824296
0.563611
0.0869529
0.739941
0.0955445
0.615284
0.0949051
0.0499588
0.121647
0.380036
0.094776
0.460284
0.0851692
0.0737324
0.141848
0.757016
0.0880659
0.0923399
0.14937
0.0640368
0.14651
0.110753
0.145346
0.0830177
0.154279
0.72937
0.0921892
0.0656268
0.111261
0.0850052
0.136273
0.0640173
0.114989
0.170941
0.105071
0.701068
0.0972726
0.234819
0.109909
0.0599518
0.122071
0.0731935
0.1234
0.12415
0.422625
0.0769695
0.113382
0.0840433
0.134735
0.595271
0.0953905
0.143711
0.165279
0.420891
0.0974314
0.0844098
0.136169
0.357095
0.099258
0.0842295
0.133335
0.144856
0.127512
0.0555898
0.110982
0.0758963
0.159762
0.200348
0.107328
0.325765
0.110499
0.28778
0.113993
0.104996
0.142936
0.132541
0.17453
0.427554
0.102108
0.14688
0.173234
0.105815
0.127032
0.10449
0.180998
0.593979
0.103022
0.0750437
0.137506
0.118845
0.145634
0.466578
0.126961
0.399519
0.100757
0.0962804
0.104889
0.596958
0.088769
0.0979489
0.126763
0.189992
0.107178
0.419513
0.106049
0.460425
0.0911512
0.0849478
0.130459
0.10491
0.158406
0.332973
0.0980007
0.116965
0.143479
1.11526
0.0955077
1.11503
0.496119
1.07844
0.157406
1.0741
1.11236
0.15703
0.231898
1.07048
0.132556
0.492944
0.663698
0.975217
0.14465
0.484986
0.0915312
0.663118
0.113369
0.965691
0.113653
0.482897
0.10025
0.963741
0.651015
0.232001
0.2275
0.64162
0.0931121
0.475602
0.96054
0.166746
0.106702
0.638273
0.458534
0.223549
0.958326
0.182847
0.112381
0.629982
0.130629
0.957517
0.394656
0.326917
0.112445
0.39159
0.953589
0.220764
0.964102
0.164352
0.597806
0.867786
0.235308
0.36093
0.148984
0.627192
0.157704
0.314196
0.113006
0.210416
0.0993699
0.59689
0.148349
0.352375
0.862689
0.225377
0.581278
0.25331
0.0980167
0.580347
0.240663
0.257522
0.240967
0.309899
0.132015
0.861657
0.835585
0.383342
0.115642
0.214734
0.14057
0.23797
0.167427
0.62319
0.600972
0.292301
0.096002
0.835162
0.12593
0.578364
0.122922
0.379082
0.176618
0.832521
0.138381
0.575711
0.1772
0.595792
0.115491
0.286163
0.217566
0.58596
0.129442
0.373983
0.160452
0.83053
0.540392
0.320781
0.116614
0.584417
0.178068
0.360011
0.115357
0.829787
0.20596
0.24495
0.157279
0.580595
0.339699
0.491328
0.791199
0.423693
0.159826
0.576529
0.115352
0.790381
0.100366
0.317472
0.224325
0.4016
0.116803
0.335032
0.267641
0.463285
0.141172
0.458874
0.18422
0.29528
0.226489
0.564634
0.243538
0.782597
0.190286
0.313176
0.319846
0.528111
0.115339
0.23459
0.243183
0.77469
0.206135
0.444566
0.159256
0.393073
0.115881
0.234076
0.440506
0.715605
0.210786
0.285844
0.343659
0.36159
0.217529
0.515511
0.195325
0.376289
0.261275
0.328485
0.124421
0.437172
0.252779
0.406962
0.146004
0.713573
0.18691
0.342367
0.156816
0.510628
0.767405
0.2351
0.197843
0.390738
0.506872
0.615447
0.177977
0.49945
0.278133
0.336611
0.137052
0.613173
0.307195
0.457246
0.165019
0.504817
0.190344
0.606997
0.493246
0.469728
0.197828
0.482402
0.192936
0.445496
0.202969
0.45674
0.206369
0.493049
0.34292
0.415892
0.352546
0.371964
0.277051
0.406459
0.25999
0.467667
0.21865
0.394684
1.11341
0.182028
0.119742
0.162796
0.137069
1.07771
1.07522
0.136234
0.130443
0.217232
0.0899402
0.211966
0.161814
0.174205
1.07595
0.182735
0.136071
0.153012
0.148246
1.06953
1.06848
0.153393
0.489238
0.138925
0.14561
0.974133
0.966212
0.281757
0.0926377
0.278378
0.159246
0.203674
0.0977642
0.2743
0.116627
0.267083
0.170642
0.24149
0.138444
0.179624
0.158186
0.198458
0.476789
0.161589
0.0771544
0.161047
0.660692
0.14718
0.639266
0.142543
0.118246
0.183343
0.631172
0.204744
0.962212
0.16201
0.145864
0.200567
0.131154
0.184954
0.0925229
0.174582
