# vtk DataFile Version 3.0
Tree
ASCII
DATASET POLYDATA
POINTS 1582 float
162774 225274 273.8
162774 225274 10273.8
141774 225774 23773.8
134370 213774 30773.8
136591 217374 28673.8
145950 208774 52773.8
140147 214106 37831.8
120774 202010 57773.8
145691 208813 50559.4
155294 198774 65773.8
148572 205801 55123.8
135774 198774 73981.8
123743 202607 57222.6
114774 193774 72897.8
154386 199443 65418.2
161774 190002 83773.8
119617 198543 64433
100774 188046 60773.8
116227 195205 70358.2
124774 193914 84773.8
155021 198975 65667
172002 174774 66773.8
162616 190719 80980.2
173226 181774 94773.8
115210 194203 72135.8
105574 186774 84773.8
124426 194554 82701.8
138774 195998 97773.8
166735 178598 63339.8
172598 160774 55773.8
169194 185173 89532.2
179942 167774 84773.8
105269 189473 63594.6
85773.8 171994 71773.8
96529 181857 69422.2
91577.8 178774 84773.8
124669 194106 84152.2
114774 193998 107774
172366 181449 93500.6
181774 167074 104774
133192 195493 94598.6
134774 195998 112774
170839 166121 58043.4
179874 149774 72773.8
116724 192915 94195.4
104774 189946 99773.8
138167 195459 96434.6
154774 193994 99773.8
87806.2 172666 70999
79549.8 157774 70773.8
177163 154678 68354.6
179874 133774 64773.8
91262.2 178346 81867
79773.8 169774 93617.8
135747 195861 109267
144774 195998 122774
178821 146387 68809
183774 135774 78505.8
177494 170791 87038.6
183186 155774 91773.8
179386 167670 104526
183998 152774 116774
83794.6 173477 91067
79773.8 174794 104774
115300 194266 107188
114774 198002 129774
138455 195902 113319
130774 197774 128350
143068 195972 122041
144774 195998 135774
82026.6 162241 70841.4
75609.8 152774 85773.8
179130 136649 64086.2
177194 122774 49773.8
172968 181677 94391.8
169206 187774 113774
182384 158407 114447
183998 155774 130774
80293 159114 70794.2
81733.8 139774 65773.8
77505.4 155610 83998.2
76773.8 154774 101890
108099 191241 99641.4
98653.8 191774 112774
144262 195990 122554
157774 193982 114774
178218 126940 52279.4
180774 125774 40069.8
181592 156379 91658.6
183998 140774 96773.8
183304 153096 116473
183998 137774 121774
183528 144363 121392
182774 137774 135326
76178.6 153625 85241
79477.8 140774 81773.8
77227.4 155292 90797
77585.8 142774 97773.8
100297 190187 109654
86773.8 181774 123318
83411.4 141890 65111.4
86997.8 127774 59773.8
113936 196541 126666
107774 194774 151134
169706 186358 113323
167082 189774 129774
142777 196269 133207
134774 198002 151774
183553 138540 121920
181998 126774 123774
96239.8 187663 113753
97593.8 192774 133774
181678 139009 134638
177782 132774 152774
183009 156547 129618
182774 154774 149970
182445 138145 135119
177930 122774 136774
77628.6 153597 98923.8
81485.8 144774 114774
78892.6 142563 83409.8
81661.8 128774 86773.8
166155 189293 128429
160774 191962 143774
89469.8 182244 122378
87773.8 173774 135050
85921.8 132009 61375
87661.8 118774 68773.8
137895 197417 149753
136774 197894 165774
87582.6 181915 123036
81773.8 165774 123042
80328.6 147421 110019
81773.8 135774 109886
180525 164150 108296
181230 169774 125774
108906 192259 146133
104774 183774 161238
176786 132529 148768
169774 124774 159194
107666 189714 150665
116006 193774 164774
87079.8 128393 59750.6
91501.8 116774 53773.8
181487 127840 122752
177950 113774 122774
83516.6 170616 123040
85565.8 160774 133774
182046 154359 148391
179974 151774 161774
169345 186649 119565
173978 182774 128774
96562.2 189865 127327
93609.8 184774 137774
178643 119402 124305
172042 110774 133774
105641 185556 158066
100774 173774 159970
81769.8 130957 86891
87773.8 117774 94097.8
112775 191233 160906
113774 185774 172418
82475.8 147057 66816.2
86773.8 140378 49773.8
159696 191668 141103
150774 193962 151774
88398.6 120489 68086.2
92281.8 109774 74773.8
137777 197385 163128
141774 195182 177774
89563.4 117274 70092.6
93657.8 106774 63773.8
177641 114344 122749
174006 103774 118774
177483 132701 151572
173774 137774 165970
81340.2 139268 109926
89445.8 130774 122774
181221 167134 123541
182002 166774 137774
85011.8 123838 90782.6
86153.8 123774 104774
174955 105915 118727
173774 98681.8 110774
108038 190477 149305
97537.8 180774 149774
135710 197827 151167
120774 200002 152774
173503 114074 132559
165974 112774 148774
180143 153799 158770
176002 159774 173774
173022 183484 128170
177182 179774 139774
170968 127768 157614
160774 126774 173974
99950.2 181079 149624
94153.8 170774 149774
172480 111764 133409
163330 102774 137774
87727.4 118496 92892.2
94345.8 107774 93773.8
113114 185865 168999
111562 172774 176774
170132 125672 158720
161134 117774 162774
85811.4 123793 100577
94345.8 111774 107774
102368 175275 160297
102774 161774 165978
174009 137983 165155
171774 141774 173970
115036 193011 163613
125774 199986 163774
172377 141730 172545
171774 148774 180798
174935 181777 133508
169974 186774 143774
163666 128100 170929
161774 134330 183774
93408.6 108138 65479.8
99773.8 96265.8 63773.8
153183 193036 150718
150774 191774 164810
88992.2 131972 122644
94773.8 127774 133322
173253 99417.8 112361
167774 89989.8 106774
125255 199349 152292
117774 200002 143774
175521 159243 173262
171210 163774 185774
176759 179495 139404
179774 172774 152798
94307.8 109109 93491.8
101774 100290 93773.8
174291 104416 118760
166774 99505.8 126774
94377.4 112979 107951
101774 105774 114574
112958 175003 176671
114774 165774 185294
169029 100979 124370
161774 90529.8 120774
89309.8 131133 122735
93033.8 119774 119774
173617 98902.6 111250
175910 96773.8 98773.8
103764 163854 165839
106774 153774 171974
168407 91266.2 106700
163774 83773.8 100126
171315 185145 142402
169986 184774 153774
172303 160425 181826
165774 153774 196006
99417 97382.6 63479.8
105774 86685.8 60773.8
169670 156718 186627
166090 146774 188774
93879.8 129187 132042
99537.8 129774 144774
171538 162769 184589
163034 175774 190774
151660 191058 163370
151186 187774 175774
99666.6 96600.6 63685.4
106238 93773.8 79773.8
106179 158108 170883
111774 153774 183026
99555 107935 112587
108774 95773.8 106882
174852 96343 101162
172774 89589.8 91773.8
101108 106422 113978
105998 107774 126774
94505.4 128198 132938
98233.8 118774 129774
170897 184034 152103
173930 178774 163774
96122.6 103019 63281
97773.8 98465.8 54773.8
163765 85212.6 101852
154774 79601.8 99773.8
105281 88606.2 62064.6
114514 79773.8 64773.8
163771 84205.4 100643
164774 81773.8 88813.8
97310.6 130829 141170
97773.8 138774 150862
110095 155074 179383
113774 141774 181926
162882 172264 189915
152774 178102 194774
173439 90682.2 92359
172774 85773.8 83133.8
111752 154053 182616
116774 151774 191290
172777 180773 159339
166774 183774 168810
106046 106641 124299
115774 102290 133774
173422 178793 163127
173842 172774 172774
97635 136390 147954
93701.8 147774 147774
108965 105336 127141
116006 97773.8 124774
164823 81413.4 89192.6
165774 78773.8 79293.8
173513 86959 84343.4
176774 84773.8 73981.8
112670 145764 181163
112774 133590 172774
97732.2 138059 149989
104342 138774 161774
115267 152457 188688
121774 139774 194434
114051 142409 181822
119774 131774 183962
168875 182023 166775
166774 178774 177950
165937 78786.6 80785.8
168774 73773.8 70861.8
113731 103203 131784
116774 107774 144886
114887 104940 136763
122774 101774 140970
115472 98945.4 125273
125774 91557.8 123774
86696.6 134161 118828
88773.8 143774 133970
120717 143339 193925
126774 140774 201882
106595 155074 171647
103490 147774 164774
122308 93581.8 123039
126774 87545.8 114774
86185 161176 133158
89533.8 153774 140774
116208 106924 142449
111454 116774 148774
116604 107519 144155
128774 105774 152970
124720 90322.2 118575
134774 86353.8 119774
131757 87544.2 119414
135774 83541.8 111774
94980.6 146651 148755
93773.8 156774 151074
112502 115234 148482
109774 124774 158890
121812 108252 150364
124774 111634 158774
110029 122109 154671
104774 129590 154774
134569 84742.6 114066
128774 83581.8 103774
103071 162398 165936
98533.8 156774 159774
110969 119497 152319
117138 119774 163774
124734 92165 123553
134774 91773.8 132798
131502 83701.4 105976
133774 81533.8 93773.8
116372 119279 160821
123566 116774 164774
121408 117525 163588
124274 120774 173774
123442 116784 164494
131774 113682 167774
134644 214513 30879
130774 210058 36773.8
131119 211145 35882.2
125774 209230 41773.8
135386 210312 45299
137774 209186 53773.8
126333 209155 41288.6
121662 206774 46773.8
131580 207223 51933.8
131774 205882 58773.8
122706 207378 44140.2
114774 203774 44809.8
131286 205636 57395
128774 200774 66025.8
121665 202189 57608.2
113774 200774 53153.8
129782 201381 65563.8
130222 198774 71773.8
129949 200390 67923.8
123774 197774 71057.8
114857 200456 54163.4
106294 195774 51773.8
151565 201575 63001.4
148774 198774 73889.8
159270 194685 70932.6
164774 189926 71773.8
137621 199089 73294.2
133774 196010 81773.8
114905 193903 72669.4
106774 189882 71773.8
134221 197481 76863.8
128774 195986 78773.8
150227 198830 72926.6
150774 195774 82893.8
164025 190069 71686.6
170038 181774 72773.8
150522 197180 78309
142774 196066 82773.8
109135 189963 76467.8
101774 185426 76773.8
101383 186479 64913
94369.8 182774 61773.8
107497 188496 80288.6
112446 189774 87773.8
145486 196446 82191
142774 195998 89773.8
170547 175972 66637
174774 173774 74381.8
95620.2 183002 62901.4
89773.8 177258 63773.8
172829 174785 70819
175982 167774 71773.8
174785 176011 85550.6
176774 173290 81773.8
175036 169877 71487.4
174058 164774 66773.8
91745.8 178348 75543.4
87773.8 175258 77773.8
135428 195692 101157
142774 195998 104774
119743 193368 90379
124774 193998 102774
172041 161237 56106.6
172014 153774 53773.8
178670 168333 85029
179774 160774 78345.8
177892 173551 104038
179978 171774 108774
171916 155826 53610.2
171246 149774 46773.8
142663 195869 104736
150774 195886 108774
124127 194407 102039
126774 195998 110774
87827 176107 86099
81505.8 166774 83773.8
91483 178645 83901.8
97517.8 182774 90773.8
179593 163604 81839.4
181874 157774 82773.8
181070 158975 82026.6
181834 151774 79773.8
180183 165206 107165
183782 158774 106774
85649.4 174687 88781.8
86217.8 178774 97773.8
86891.4 177731 93907
[...]
CELL_DATA 1581
SCALARS radius float
LOOKUP_TABLE default
2.122e-314
100
100
1.15187
0.198476
1.14991
0.96238
0.856254
0.0669534
0.8559
0.852055
0.20338
0.956904
0.176105
0.431066
0.803989
0.732205
0.784954
0.234078
0.724142
0.0433905
0.430919
0.0758377
0.801776
0.128118
0.220514
0.635935
0.495798
0.200267
0.41497
0.785647
0.312383
0.783408
0.133399
0.364975
0.754349
0.0522663
0.635817
0.488486
0.716851
0.229734
0.478779
0.19774
0.397128
0.399886
0.566794
0.0712408
0.227427
0.0727124
0.753792
0.165564
0.37977
0.351271
0.164866
0.087224
0.47389
0.219048
0.351126
0.235212
0.232955
0.706708
0.155332
0.248417
0.182917
0.155325
0.561556
0.452376
0.234434
0.259012
0.419958
0.700285
0.43568
0.103063
0.344872
0.0491535
0.48832
0.638526
0.438901
0.067732
0.433012
0.627908
0.454118
0.38674
0.182733
0.0584363
0.258017
0.23524
0.284722
0.0868011
0.231204
0.0605853
0.634717
0.532453
0.471398
0.064358
0.627682
0.444096
0.182361
0.381748
0.130274
0.0835356
0.420216
0.0876907
0.559286
0.475
0.153298
0.0943705
0.409892
0.0644539
0.532138
0.216392
0.357002
0.259242
0.438207
0.430735
0.11144
0.0596022
0.258188
0.0873572
0.442966
0.118839
0.626259
0.0771894
0.349062
0.327317
0.196036
0.199968
0.402359
0.311101
0.31823
0.0696005
0.326265
0.430489
0.19256
0.701279
0.1915
0.552732
0.136143
0.346646
0.33835
0.484535
0.334674
0.0637762
0.197782
0.52016
0.14863
0.118169
0.321014
0.0826482
0.420406
0.350316
0.400376
0.146584
0.191138
0.271484
0.494238
0.0985743
0.483172
0.0793376
0.625029
0.307012
0.189944
0.421314
0.185703
0.0967554
0.339632
0.0854588
0.398242
0.202044
0.270084
0.382487
0.193126
0.0645758
0.487972
0.080266
0.345205
0.132689
0.426245
0.100601
0.181759
0.273058
0.605002
0.460548
0.264525
0.533927
0.25538
0.301311
0.140169
0.161898
0.250749
0.414209
0.147934
0.0725475
0.394922
0.233734
0.26526
0.0994148
0.230672
0.0848535
0.235595
0.0766198
0.271032
0.10868
0.302404
0.0862725
0.229749
0.599697
0.179402
0.473134
0.175578
0.152111
0.322897
0.0910731
0.182691
0.220774
0.249604
0.240459
0.359661
0.141883
0.236383
0.0956297
0.361088
0.298399
0.15286
0.183492
0.38909
0.332473
0.393507
0.278586
0.178991
0.402075
0.139544
0.0671589
0.2387
0.0865148
0.239737
0.0697645
0.262897
0.595165
0.116852
0.238919
0.222697
0.199824
0.200483
0.0613852
0.181172
0.0677313
0.331534
0.188021
0.463022
0.0912017
0.391867
0.0934964
0.353753
0.291752
0.334478
0.224361
0.296153
0.217812
0.243851
0.217101
0.360448
0.102326
0.331255
0.10973
0.278863
0.0678796
0.222271
0.242021
0.437064
0.146114
0.592215
0.109797
0.32747
0.133838
0.589927
0.0751475
0.214058
0.325047
0.18414
0.334026
0.214085
0.353765
0.201925
0.120668
0.289318
0.0822797
0.352275
0.127208
0.347039
0.321087
0.358689
0.214803
0.250766
0.270979
0.168437
0.0758654
0.319669
0.214871
0.265051
0.0976558
0.587717
0.0918128
0.209132
0.270068
0.280619
0.517156
0.401432
0.0886327
0.339249
0.133525
0.25971
0.266576
0.289851
0.10346
0.264909
0.179974
0.299395
0.241236
0.169908
0.226992
0.190603
0.223142
0.268175
0.104629
0.515725
0.477969
0.297101
0.0881827
0.400009
0.402243
0.213108
0.214217
0.233214
0.153105
0.219581
0.214369
0.378333
0.091927
0.242705
0.267835
0.448108
0.0814699
0.265298
0.136588
0.365993
0.335959
0.22311
0.142325
0.216169
0.42339
0.201596
0.21161
0.209514
0.254973
0.201192
0.244635
0.285531
0.0744217
0.184051
0.291306
0.371271
0.0969235
0.20755
0.171878
0.236613
0.352507
0.19464
0.271044
0.288011
0.0902006
0.267672
0.0529245
0.197214
0.0675945
0.187829
0.0938338
0.962083
0.0663607
0.15824
0.191569
0.959544
0.106406
0.140231
0.129647
0.169285
0.0561451
0.174182
0.0772328
0.153221
0.112388
0.129616
0.120761
0.1146
0.843338
0.262306
0.146586
0.802362
0.0875171
0.186377
0.0434619
0.126429
0.124906
0.165406
0.2494
0.107399
0.0616245
0.142862
0.135478
0.221714
0.181353
0.159164
0.129607
0.782224
0.152726
0.133926
0.0937997
0.198285
0.187777
0.112161
0.0798962
0.118574
0.102685
0.176927
0.294933
0.0938195
0.135162
0.145324
0.362982
0.0925236
0.474873
0.138633
0.626609
0.218013
0.0657703
0.195284
0.0737795
0.230461
0.709201
0.216683
0.0939967
0.17376
0.0507622
0.136326
0.0678118
0.215804
0.338078
0.167535
0.0634245
0.161676
0.209094
0.14579
0.089629
0.203454
0.706007
0.101615
0.27785
0.258088
0.245356
0.134273
0.05603
0.18096
0.109353
0.192326
0.0834856
0.211556
0.0438132
0.154154
0.0834332
0.193028
0.0710009
0.162826
0.480263
0.178304
0.0617386
0.149884
0.0709457
0.128655
0.106545
0.238467
0.698783
0.13017
0.413847
0.147154
0.634901
0.163976
0.115326
0.197886
0.113921
0.178775
0.111159
0.240765
0.0925679
0.153485
0.105797
0.231313
0.173805
0.235807
0.207889
0.20159
0.161655
0.213502
0.151367
0.207301
0.555471
0.152628
0.0745299
0.156191
0.100467
0.221313
0.17137
0.179743
0.138692
0.184855
0.206655
0.11047
0.0825111
0.23239
0.0834579
0.179001
0.263821
0.148257
0.0845243
0.202507
0.466575
0.147093
0.0615338
0.113064
0.421468
0.171545
0.102519
0.138976
0.0872337
0.122972
0.400407
0.144207
0.0762627
0.120905
0.399549
0.110666
0.524174
0.120478
0.34223
0.104138
0.329552
0.119227
0.134602
0.137674
0.0633917
0.135706
0.206269
0.203561
0.0827378
0.187327
0.146251
0.178086
0.104234
0.398007
0.125444
0.179285
0.329721
0.149341
0.121555
0.166407
0.0922709
0.195414
0.185478
0.367358
0.488349
0.162167
0.134478
0.160592
0.315596
0.193996
0.247024
0.246802
0.096021
0.185815
0.182552
0.183614
0.11915
0.340407
0.109092
0.164661
0.159669
0.250031
0.421268
0.116124
0.239209
0.127611
0.162742
0.215347
0.104108
0.146378
0.121688
0.236519
0.252322
0.137506
0.145196
0.149177
0.0695176
0.171868
0.407601
0.122653
0.311091
0.143803
0.192095
0.181594
0.0832234
0.152767
0.119715
0.162474
0.596663
0.148233
0.150847
0.154051
0.0773832
0.174468
0.291158
0.143771
0.143244
0.209447
0.0926403
0.185742
0.141161
0.20274
0.0645723
0.148129
0.100748
0.167648
0.297429
0.194469
0.131741
0.192516
0.396328
0.14006
0.252178
0.128727
0.243436
0.138947
0.311212
0.178675
0.0766271
0.141067
0.159901
0.157278
0.151078
0.179829
0.0832511
0.216756
0.135994
0.309726
0.14637
0.309234
0.284415
0.152736
0.11921
0.22948
0.135904
0.147269
0.185819
0.189381
0.352645
0.14384
0.156169
0.202273
0.0759653
0.19678
0.125853
0.433558
0.10664
0.191866
0.150826
0.316437
0.16026
0.17859
0.157083
0.186217
0.136726
0.171722
0.0844777
0.161033
0.0730906
0.147338
0.0577211
0.13016
0.136222
0.194723
0.15522
0.165017
0.305602
0.179693
0.37446
0.197195
0.198647
0.205843
0.116042
0.161848
0.0737976
0.180101
0.156188
0.2142
0.235039
0.167899
0.134956
0.173705
0.121002
0.210089
0.132574
0.260073
0.341254
0.158424
0.312089
0.164066
0.18253
0.22578
0.260696
0.163622
0.174996
0.266805
0.102887
0.263029
0.136388
0.195303
0.207235
0.216105
0.16887
0.209712
0.166017
0.192381
0.25815
0.208174
0.372227
0.137152
0.14632
0.187062
0.213234
0.195812
0.0821725
0.209086
0.139639
0.443542
0.081998
0.196968
0.140973
0.188277
0.174173
0.179899
0.0739287
0.175637
0.108723
0.237256
0.169472
0.203986
0.108113
0.156227
0.438108
0.146872
0.101645
0.184922
0.0816071
0.262874
0.190703
0.0902427
0.099013
0.178169
0.162039
0.111903
0.958888
0.107726
0.0501473
0.127096
0.0610417
0.100752
0.1926
0.085491
0.851713
0.0906507
0.0906418
0.258647
0.237435
0.128611
0.0562305
0.101994
0.0794233
0.117598
0.0975634
0.11306
0.117074
0.109448
0.205049
0.131571
0.0662762
0.125708
0.215419
0.0898825
0.143018
0.16951
0.298065
0.158772
0.121467
0.130842
0.723715
0.0875609
0.105512
0.125756
0.71588
0.114338
0.754017
0.0826701
0.110652
0.130208
0.135458
0.391803
0.0910569
0.132832
0.0800326
0.12542
0.182483
0.111081
0.0931832
0.753317
0.112264
0.148693
0.472457
0.0987135
0.112204
0.146213
0.122136
0.150727
0.071576
0.150092
0.0943305
0.134776
0.107044
0.144217
0.0859309
0.560885
0.19809
0.11924
0.101094
0.213156
0.140416
0.176384
0.450522
0.104266
0.0921508
0.128922
0.0853859
0.119092
0.433564
0.106241
0.0890078
0.170581
0.0893387
0.173389
0.129428
0.129042
0.0867274
0.165832
0.132222
0.110566
0.117506
0.187292
0.0720027
0.11738
0.411553
0.105442
0.0835501
0.117504
0.135508
0.173921
0.0762195
0.101703
0.330495
0.144642
0.153833
0.210875
0.0906621
0.179924
0.406547
0.118696
0.133836
0.13813
0.109992
0.16845
0.155523
0.115096
0.131509
0.200706
0.526287
0.152459
0.203171
0.244937
0.396504
0.122956
0.104416
0.20483
0.116672
0.189438
0.182821
0.139504
0.107716
0.165793
0.0811279
0.14457
0.0589893
0.145466
0.112845
0.149414
0.103519
0.354077
0.097049
0.127748
0.532792
0.0989415
0.0788278
0.13818
0.345414
0.109682
0.168364
0.130266
0.625455
0.0981387
0.108433
0.433535
0.123621
0.178049
0.0545942
0.134751
0.1394
0.143242
0.110498
0.248289
0.0790527
0.160234
0.154084
0.156103
0.0866732
0.118997
0.137877
0.179814
0.118311
0.158586
0.131405
0.434939
0.123104
0.161573
0.105954
0.166604
0.349254
0.121407
0.623002
0.104749
0.481061
0.113752
0.0729928
0.143109
0.0846055
0.118485
0.623987
0.106825
0.101525
0.131698
0.424189
0.103694
0.41127
0.114523
0.395736
0.102371
0.36331
0.117466
0.15008
0.139541
0.257675
0.111221
0.223379
0.164908
0.264405
0.112529
0.392414
0.105246
0.21002
0.158309
0.102585
0.196973
0.143808
0.15087
0.355917
0.112867
0.333779
0.131225
0.0858096
0.143256
0.0729197
0.141776
0.23667
0.127032
0.108807
0.172439
0.0614764
0.135447
0.0562915
0.212896
0.169098
0.220465
0.384992
0.122579
0.0589643
0.111617
0.126948
0.172009
0.114949
0.155937
0.139949
0.186116
0.46052
0.116974
0.0959601
0.142739
0.105064
0.183657
0.118018
0.228667
0.197461
0.128242
0.160557
0.182165
0.107459
0.17042
0.155473
0.220646
0.143704
0.18835
0.164146
0.184623
0.211207
0.136354
0.343659
0.15442
0.3198
0.153854
0.105265
0.136006
0.588614
0.111018
0.29503
0.15728
0.122295
0.16082
0.137576
0.149521
0.124999
0.20637
0.291135
0.191376
0.429538
0.130958
0.271084
0.162569
0.162922
0.188112
0.16339
0.148974
0.254893
0.172413
0.0918816
0.170085
0.209417
0.187435
0.124016
0.17215
0.351139
0.141827
0.181065
0.147522
0.326525
0.161733
0.101468
0.168653
0.108295
0.165819
0.0715116
0.165576
0.161031
0.243371
0.282371
0.162898
0.197535
0.206988
0.204053
0.208169
0.137754
0.215946
0.513523
0.120493
0.163884
0.215539
0.15206
0.244864
0.105377
0.179197
0.0905096
0.210678
0.0987209
0.177407
0.151788
0.192111
0.157199
0.172544
0.12573
0.17216
0.131368
0.1737
0.0723396
0.168197
0.26364
0.170474
0.136433
0.172154
0.157604
0.174155
0.181832
0.143074
0.105594
0.171648
0.127285
0.182533
0.100795
0.198693
0.143897
0.183323
0.26547
0.173047
0.197488
0.22556
1.14956
0.111496
0.0720829
0.100382
0.856037
0.078193
0.959341
0.0825177
0.0884105
0.110847
0.159501
0.0925759
0.198058
0.0863205
0.0600453
0.108819
0.25587
0.0820062
0.14837
0.126378
0.0861956
0.11128
0.784695
0.078168
0.429969
0.0808381
0.0992868
0.101385
0.802002
0.0885702
0.0999549
0.152215
0.0495188
0.1098
0.11478
0.149755
0.146798
0.094315
0.0683603
0.1243
0.0626972
0.105208
0.0765006
0.115507
0.635285
0.0863877
0.781815
0.0908496
0.0821785
0.122697
0.0912876
0.132161
0.0796623
0.566268
0.220481
0.101485
0.41284
0.103062
0.389982
0.0941626
0.56549
0.0907858
0.202112
0.112629
0.377511
0.0990492
0.0868856
0.752932
0.752506
0.0897394
0.11098
0.117751
0.121147
0.159354
0.0780645
0.138383
0.210165
0.107071
0.347914
0.105596
0.161957
0.142042
0.0658136
0.135421
0.22801
0.101001
0.0743875
0.126186
0.339483
0.123704
0.0902849
0.168118
0.560004
0.0939782
0.167208
0.113063
0.0927158
0.160914
0.105406
0.129982
0.076872
0.120319
0.08452
0.152732
0.121463
0.111723
0.125794
0.111619
0.106586
0.149621
0.433208
0.0992861
0.217995
0.125983
0.120201
0.1234
0.174202
0.0919743
0.061111
0.104943
0.0740955
0.20778
0.103272
0.13467
0.111207
0.150436
0.135845
0.186276
0.10211
0.132759
0.530517
0.111123
0.156061
0.162413
0.149717
0.17041
0.418192
0.102194
0.121575
0.111485
0.135554
0.230233
0.141892
0.21065
0.0856992
0.121935
0.110308
0.118863
0.435785
0.111538
0.113296
0.192555
0.075806
0.131604
0.431584
0.103086
0.0575731
0.10499
0.115859
0.115051
0.303475
0.120802
0.102821
0.166891
0.15921
0.2042
1.10033
0.0955309
1.10009
0.980907
0.72541
0.193657
0.717523
1.09849
0.155557
0.22419
0.707944
0.131391
0.979231
0.505881
0.931019
0.0901209
0.504926
0.224951
0.698281
0.191023
0.928331
0.124058
0.50049
0.192875
0.924879
0.682654
0.264868
0.457734
0.308859
0.197084
0.677134
0.107491
0.455749
0.159855
0.922087
0.113404
0.66659
0.245256
0.430726
0.917272
0.180384
0.138448
0.229567
0.527958
0.853713
0.0935152
0.18525
0.133786
0.661498
0.412439
0.213647
0.0714254
0.527522
0.303592
0.348089
0.121445
0.851986
0.162924
0.292941
0.515661
0.213132
0.182257
0.279895
0.160249
0.336379
0.142416
0.512014
0.140863
0.8507
0.228654
0.845158
0.142255
0.659297
0.200429
0.653064
0.214084
0.248399
0.0899072
0.244409
0.167889
0.505925
0.127386
0.214633
0.526303
0.770772
0.103047
0.524982
0.213709
0.304744
0.101272
0.205221
0.111791
0.65197
0.635384
0.274205
0.226097
0.625694
0.130298
0.522293
0.141276
0.502226
0.14035
0.769217
0.284102
0.469883
0.166399
0.263635
0.120858
0.507438
0.112829
0.768407
0.100261
0.624835
0.206366
0.617239
0.149464
0.503079
0.164318
0.252927
0.122194
0.615639
0.121337
0.767398
0.145436
0.465193
0.509713
0.215795
0.131064
0.766121
0.13297
0.499963
0.390159
0.403266
0.228303
0.362137
0.262698
0.599263
0.114393
0.255259
0.131845
0.461635
0.753223
0.2816
0.10857
0.752471
0.189348
0.748453
0.269343
0.303486
0.169101
0.393101
0.276234
0.579023
0.109173
0.577726
0.240355
0.438806
0.320502
0.372219
0.119978
0.747424
0.147777
0.267323
0.700821
0.41857
0.29225
0.329531
0.169797
0.572795
0.168107
0.360419
0.155928
0.698239
0.120933
0.415178
0.220465
0.393326
0.474795
0.615683
0.283188
0.336607
0.129725
0.471544
0.194407
0.609153
0.179912
0.566816
0.172255
0.320844
0.467905
0.498121
0.191725
0.460734
0.151125
0.46259
0.211181
0.485133
0.236269
0.552788
0.21184
0.445294
0.281074
0.425033
0.36501
0.403197
0.231203
0.538963
0.314726
0.357287
0.217989
0.380728
0.31855
0.38252
0.240866
0.522425
1.09953
0.126386
0.980019
0.136787
0.125407
0.724158
0.152003
0.155372
0.118039
0.212704
0.159506
0.177212
0.722195
0.145496
0.705977
0.143406
0.715361
0.149331
0.978357
0.135927
0.102016
0.217728
0.149924
0.190851
0.114941
0.176
0.20965
0.210799
0.503018
0.113292
0.927667
0.11971
0.126637
0.192954
0.923685
0.145178
0.150936
0.180989
0.142263
0.168404
0.0910843
0.149318
0.695695
0.155616
0.152545
0.674544
0.667683
0.210073
0.919591
0.185156
0.133135
0.190477
0.115886
0.168585
0.916316
0.13407
0.101333
0.169024
0.663317
0.163148
0.852808
0.125519
0.110475
0.203309
