# vtk DataFile Version 3.0
Tree
ASCII
DATASET POLYDATA
POINTS 1582 float
162774 225274 273.8
162774 225274 10273.8
141774 225774 23773.8
135122 214198 30497.8
137117 217671 28480.6
133774 207774 55941.8
134777 210743 47703.4
152774 203774 58881.8
135479 212821 41936.6
111774 199962 50773.8
125123 206214 48804.6
120774 197774 68901.8
149100 203975 58368.6
161242 191774 76773.8
123976 200477 63809.8
132774 195986 82773.8
115186 200746 51904.6
102774 189934 63773.8
120751 197816 68657.8
110774 189774 82797.8
157775 194517 67879.4
173774 173890 69773.8
161429 191553 75469.4
173226 181774 94773.8
104445 191179 60569
90773.8 177974 63773.8
99250.2 186161 61787
96773.8 181978 75773.8
113767 192187 78555.8
118774 193774 100654
119421 193403 91868.6
138774 195998 105774
169594 176503 68115
174774 152774 61577.8
170968 165564 61130.6
170062 157774 48773.8
172110 161727 61264.6
178774 155954 74773.8
171692 180983 93076.2
181230 167774 110774
92340.6 178867 64618.2
80773.8 163886 74773.8
174556 154087 62475.8
179878 139774 68773.8
87019.8 171976 69289.8
83773.8 174774 94349.8
110720 190390 81691.8
97773.8 184010 92773.8
118212 193925 99553
112774 195998 119774
136209 194909 101879
157774 193230 104774
116145 194713 107237
128774 195998 119774
116765 194477 104932
99773.8 191774 111650
127464 195651 117369
143774 195998 126774
161298 191708 76382.6
156774 192062 90773.8
177575 143829 64885.8
179774 124774 60345.8
177703 157207 73786.2
183978 153774 93773.8
179042 168680 106975
183998 148774 117774
83279.8 165249 72135.8
79489.8 148774 72773.8
181470 160186 113807
183998 157774 128774
81276.2 153814 71150.6
82773.8 143590 62773.8
85007.4 173711 84827
75545.8 156774 97773.8
81439.8 168307 91550.2
77773.8 167774 107882
84459.8 175522 93176.2
85589.8 182774 109774
113948 196179 119049
114658 199774 138774
141470 195609 123815
158774 193886 123774
133907 195631 120334
134774 197994 137774
173897 177292 97246.2
173974 182774 115774
178968 132407 59713.4
180774 120774 41885.8
136185 196856 132790
147018 195774 145774
182095 154804 87777.4
183998 135774 95773.8
183315 149755 117403
183998 133774 122774
183502 137529 122879
181774 129774 133886
183113 156798 124935
183998 144774 138774
183449 152229 130194
183998 156774 143774
183292 145387 137297
180014 134774 144774
80025.8 150286 72287
79489.8 138774 84773.8
82324.6 146657 65287
86361.8 124774 65773.8
79684.2 142943 82783.4
79537.8 139774 101774
79610.2 141889 98483
79773.8 148774 114894
85129.8 178395 105453
85773.8 173774 129890
113417 197256 134390
107574 190774 156774
104221 192797 111253
98773.8 193866 121774
143768 196099 141879
135774 197998 162774
146043 195871 144605
161774 191774 144002
99824.6 193198 120613
95773.8 191158 133774
179885 136659 144511
172774 127774 157318
180573 168046 109634
181774 169078 124774
137091 197647 150504
126774 200002 154774
84991 174501 118526
82161.8 164774 123774
183849 134900 122805
178774 117522 122774
107912 189809 152636
103774 181774 161182
181224 130188 131738
174514 117774 139774
107675 190485 155533
114282 191774 165774
183456 155407 142347
181186 155774 159774
174179 181234 114687
174774 181974 127774
79548.2 140025 84176.6
84317.8 123774 93773.8
176527 121498 137363
173774 111774 132130
85692.6 131033 63643.4
91673.8 114774 51773.8
136873 197592 160721
141082 195774 171774
83335 141970 64793.8
87537.8 135774 49773.8
179432 119099 121381
176774 108258 117774
86801.8 125505 65837.8
91561.8 110774 72773.8
173994 128913 153520
167774 118774 154890
79672.6 144505 104719
85497.8 134774 117774
172556 128355 156782
166774 127774 167326
86092.2 172990 128485
89557.8 166774 141774
178118 134335 147214
176538 139774 161774
88518.2 168639 137787
95497.8 176774 148774
180495 155667 158920
177974 155774 169774
83625.8 166218 122917
85545.8 150774 130774
84465.8 126174 90702.6
90297.8 113774 93773.8
93403.8 174333 145478
99449.8 166774 158774
88081.8 118486 92606.6
90313.8 115774 102774
112300 191387 162701
113130 179774 175774
89287 117021 98097
87449.8 122774 104774
128019 199256 153481
115774 199218 153774
92095 112106 71602.2
96117.8 103774 74773.8
146725 195803 145423
149050 193774 157774
90741.4 115489 68628.6
95657.8 102774 64773.8
174927 181466 126061
177014 179774 140774
176711 109297 117628
171198 94773.8 109774
178766 156988 165807
175886 164774 174774
85743.8 134808 115836
93033.8 123774 125774
140152 195381 170937
143774 191774 184574
167635 128351 166131
161774 130774 179130
90301.4 114680 94111.8
97129.8 105774 99773.8
183835 156364 143346
181978 167774 146774
175551 138593 160755
171206 141774 174774
99147.8 166908 158103
103554 160774 167774
168753 120315 153804
162774 110226 149774
90299 114046 93875.4
96285.8 105774 86773.8
176755 108569 117730
169774 99121.8 121774
95081.4 108446 98075.4
97661.8 108774 110774
165877 129077 170031
157774 123118 173774
112765 180181 172991
112774 167954 180774
172378 142455 172249
171198 152774 183774
175717 180999 137641
171774 185258 146774
175833 163092 174033
169954 167774 186774
155796 193331 144231
161774 189946 154774
96515.4 106575 99264.2
101774 100290 93773.8
149349 193303 156912
152774 189774 168810
90045 127067 119947
92773.8 119774 119162
181891 165953 146693
177774 176774 152810
98193.8 108415 109910
101774 107774 118574
173123 98193.8 109487
171774 90389.8 99773.8
95545 104387 65674.6
104334 89773.8 63773.8
169768 100151 120760
161774 92001.8 122774
92137 124762 124026
99537.8 126774 141774
172395 93979.8 104242
161774 84125.8 104774
102955 161170 166178
107774 151774 175026
170617 149988 182377
164774 152774 196026
101168 100935 93576.2
107590 92773.8 81773.8
177239 175271 152243
171158 183774 157774
97260.2 108424 106360
107774 98773.8 113106
169772 99430.6 121469
162774 99773.8 134890
101697 94157.8 64344.2
102322 89773.8 53773.8
170396 167717 184034
161774 176402 191774
112771 168736 179178
112774 156774 183970
104102 90819 64455.4
110774 83773.8 66889.8
101715 107527 117243
108258 104774 125774
151731 189783 167792
152966 185774 178774
92765 124070 125249
100002 115774 128774
172011 91567 100155
171558 87773.8 88773.8
97216.6 128370 138615
99705.8 134774 150774
163521 86145 103510
153774 79545.8 96773.8
107912 152541 174445
113774 143774 183062
95623.8 103258 65044.2
97485.8 100774 54773.8
175870 164269 174551
174774 175774 167158
109279 85259.4 65348.2
116774 76773.8 61965.8
170523 88519 93387.8
162774 81445.8 86773.8
113427 159163 183629
117446 150774 190774
98763.4 134585 148091
97773.8 145774 155062
172532 180829 157238
165774 183998 167774
111546 147105 179787
113482 137774 176774
171793 88094.2 89497.8
176418 87773.8 79773.8
166046 83687.4 88275
166774 79773.8 80961.8
107543 105517 125094
115774 104774 137370
108043 104997 125570
117774 97773.8 127990
175030 87869.8 82691
173882 80773.8 74773.8
113796 144341 182733
120774 137590 190774
85719.8 155899 129844
91589.8 148774 143774
166437 79990.6 81684.6
165774 73773.8 72021.8
116447 141775 185789
119738 130774 182774
98308.2 139732 151298
105546 140774 165774
167541 182551 166469
165366 179774 178774
115951 99024.2 126606
123522 92773.8 122774
88481.8 151428 135767
90773.8 141774 137330
115907 104815 136919
121774 104358 144774
103497 139429 160707
109006 133774 165774
119476 138845 189278
126774 141774 201974
118606 104605 140533
115774 112774 151114
117796 104667 139449
128774 98773.8 139958
123130 93296.6 122600
130774 87497.8 117774
117077 109016 146246
107774 117130 145774
121531 104662 144236
129774 105774 153962
130619 87797.4 117812
136774 83597.8 113774
90657.4 149570 141372
93561.8 155774 149774
106913 135923 163849
110534 123774 158774
107532 131362 160788
104354 126774 151774
128373 89447.4 119249
128774 83773.8 106798
123404 92930.6 122722
134750 89773.8 128774
135040 84703.8 113787
139774 80997.8 103774
128903 84855.4 107539
129578 82773.8 98773.8
124602 101013 139764
126774 95461.8 132774
116650 111941 150623
118774 116222 159774
118999 115847 159365
122006 119774 168774
118294 114675 156743
128774 112774 163958
122138 118763 167864
126774 121774 178966
135071 214827 30390.6
129774 210006 34773.8
137887 215459 33834.6
145774 211230 40773.8
130224 211026 34290.2
122774 207994 39773.8
124002 208181 39857.8
120774 206062 44773.8
134605 208323 54393.8
137774 205970 60773.8
119841 203938 48750.6
114774 202774 45953.8
136823 206676 58859.8
132774 202098 64773.8
137913 206079 60487.4
142774 203774 66793.8
151677 200833 62690.6
150774 199774 70897.8
121977 198827 66815.4
112774 195774 64965.8
150250 200169 68427.8
144774 199946 73773.8
161259 191754 76656.2
154774 194102 78773.8
116770 194925 72558.2
109774 191242 71773.8
107297 194752 54509.4
101774 191258 53773.8
125929 197139 73657
124226 194774 77773.8
155128 193698 79047
146774 196014 82773.8
145126 199472 73463
139774 197998 78773.8
165623 183546 68912.2
170774 181774 74397.8
147487 195268 82981
139774 195998 87773.8
167767 179743 68481.8
169814 177774 61773.8
106836 188476 85016.2
100774 184062 81773.8
141716 195801 87459.8
138774 195998 94773.8
169189 183546 82915
174774 177774 84393.8
172620 173948 69473
175982 167774 71773.8
173547 179061 85041.8
176774 175774 88397.8
174406 178160 84588.2
177774 171202 80773.8
96161.8 182365 73817
92465.8 179774 80773.8
115467 192307 85345.8
111774 190010 93773.8
175833 176207 86867.4
179966 168774 87773.8
92879 179891 80504.2
90773.8 177974 85773.8
118605 193819 100323
125774 194006 104774
111275 190690 92197
105774 189814 97773.8
138004 195671 104605
136774 195998 112774
178453 156330 74477.4
179910 148774 72773.8
170576 158477 52110.2
171986 147774 48773.8
178067 170179 103900
181998 162774 103774
83937 172089 86844.2
80145.8 165774 84773.8
84711.8 174689 89335.4
89773.8 178774 92213.8
137143 195900 110323
131774 195998 112774
106414 190139 97669
101774 189974 103774
145294 195471 84683
146774 195998 94773.8
151940 193218 100995
158774 192042 97773.8
88282.2 178044 92220.6
91773.8 183774 99457.8
179109 141842 68303.4
182774 139774 79577.8
137991 195619 122213
146774 195998 115774
156432 192782 103311
[...]
CELL_DATA 1581
SCALARS radius float
LOOKUP_TABLE default
2.122e-314
100
100
1.15092
0.16532
1.14978
0.197958
0.826166
0.829938
0.981331
0.849228
0.692526
0.0773392
0.825106
0.687598
0.177793
0.848387
0.105799
0.0400786
0.684021
0.462451
0.768195
0.274099
0.756004
0.0791182
0.846979
0.203792
0.843028
0.676568
0.191288
0.649988
0.293501
0.447383
0.17598
0.434793
0.183638
0.35953
0.329339
0.0744116
0.749741
0.0686842
0.842267
0.0754479
0.356026
0.735093
0.583592
0.173773
0.101432
0.648901
0.111199
0.182223
0.267923
0.455897
0.534996
0.628176
0.293772
0.529327
0.148128
0.249434
0.171837
0.249912
0.309055
0.161687
0.312759
0.193177
0.720863
0.733728
0.114795
0.606861
0.53173
0.687978
0.4063
0.282075
0.560298
0.13155
0.239695
0.068976
0.555981
0.0697429
0.452301
0.252026
0.220731
0.317646
0.488065
0.729015
0.323939
0.130958
0.294028
0.23334
0.468384
0.265812
0.16175
0.0684841
0.530012
0.48419
0.318544
0.129075
0.604908
0.498757
0.455208
0.197424
0.488225
0.104945
0.687163
0.0881174
0.403218
0.594781
0.483965
0.127547
0.479895
0.100612
0.552881
0.441866
0.138828
0.215242
0.244423
0.353837
0.382397
0.296818
0.262803
0.0883458
0.232186
0.483757
0.129135
0.069395
0.190144
0.312846
0.286918
0.48685
0.363892
0.070111
0.483699
0.420942
0.170296
0.0898369
0.305413
0.0803119
0.419966
0.3284
0.383192
0.27959
0.214574
0.591332
0.109556
0.149307
0.275135
0.34965
0.258905
0.16832
0.278567
0.391707
0.176046
0.0880258
0.47931
0.0658764
0.348869
0.312465
0.295134
0.465318
0.206038
0.0752355
0.311004
0.474313
0.158171
0.365409
0.386109
0.103606
0.47266
0.0767465
0.377601
0.0857865
0.348482
0.588456
0.127925
0.169346
0.465299
0.227985
0.575645
0.162002
0.40422
0.123486
0.215207
0.10551
0.275626
0.096756
0.14667
0.0627829
0.295878
0.159543
0.334408
0.197018
0.234959
0.272866
0.44232
0.36855
0.155765
0.456671
0.161362
0.116923
0.213443
0.284695
0.159419
0.164231
0.571154
0.0614563
0.327681
0.0918142
0.363467
0.13677
0.451798
0.106932
0.201476
0.049994
0.162672
0.0570729
0.261832
0.241439
0.556395
0.168763
0.26337
0.155999
0.380091
0.196708
0.33707
0.165549
0.180426
0.233148
0.334379
0.161761
0.231156
0.0728349
0.239209
0.249396
0.151731
0.122154
0.448374
0.0860868
0.325688
0.0725374
0.55031
0.432049
0.15676
0.301392
0.215577
0.21468
0.200467
0.177686
0.438872
0.361159
0.314917
0.441049
0.160104
0.136924
0.272006
0.0768016
0.23654
0.0928672
0.317503
0.550729
0.173337
0.0719006
0.211957
0.161222
0.285156
0.175884
0.309826
0.112735
0.363452
0.0978374
0.281264
0.078908
0.548168
0.115584
0.24083
0.0699211
0.174001
0.0933619
0.339503
0.115629
0.420569
0.190296
0.253522
0.408743
0.201627
0.0698736
0.213102
0.0742463
0.23061
0.130654
0.271534
0.247245
0.28852
0.327661
0.203368
0.111869
0.417914
0.199055
0.288929
0.342269
0.304355
0.0970967
0.24215
0.246682
0.208058
0.400748
0.464712
0.0594094
0.400313
0.160202
0.216068
0.0931355
0.339954
0.11617
0.321763
0.122283
0.236229
0.287999
0.248797
0.390451
0.192314
0.134073
0.263075
0.102606
0.393939
0.272082
0.209093
0.457843
0.140396
0.347719
0.259539
0.239601
0.216391
0.404911
0.221371
0.425864
0.26561
0.370839
0.170352
0.204188
0.386805
0.0824137
0.217497
0.279132
0.167586
0.114633
0.265122
0.143446
0.339384
0.258611
0.27933
0.297968
0.29061
0.0590857
0.167949
0.195915
0.24232
0.117823
0.284005
0.199316
0.22118
0.360294
0.200139
0.0910224
0.320497
0.322926
0.235707
0.133064
0.278164
0.0507977
0.163706
1.14894
0.138583
0.0685409
0.148106
0.0906993
0.135768
0.0688938
0.195137
0.848935
0.0858518
0.12226
0.177613
0.0533195
0.118781
0.197865
0.820986
0.684067
0.170792
0.0767535
0.193938
0.0342423
0.249219
0.681628
0.149598
0.847209
0.136445
0.0964663
0.167773
0.0955091
0.244452
0.0632098
0.183951
0.457801
0.143473
0.069189
0.237013
0.456281
0.0983897
0.113522
0.155836
0.130083
0.175162
0.749985
0.217144
0.0691539
0.161775
0.120598
0.20396
0.0586565
0.115783
0.0807534
0.199474
0.669852
0.203333
0.172035
0.150269
0.0710901
0.131777
0.0494626
0.107836
0.0758316
0.190063
0.158399
0.127578
0.0644268
0.158203
0.102138
0.172437
0.725458
0.170162
0.252236
0.185621
0.556335
0.154758
0.11087
0.137708
0.0692431
0.186949
0.196398
0.179035
0.134514
0.244547
0.124292
0.121335
0.226417
0.158758
0.299117
0.174217
0.189642
0.198357
0.0654044
0.14375
0.732297
0.132112
0.127204
0.212154
0.124003
0.170006
0.0636488
0.183092
0.117946
0.148675
0.530393
0.104203
0.0607921
0.250841
0.136548
0.153146
0.154237
0.216175
0.0579162
0.213835
0.105112
0.448161
0.0864931
0.192716
0.180432
0.169624
0.135538
0.27226
0.214262
0.142085
0.0767608
0.147619
0.526367
0.145035
0.156246
0.236768
0.179408
0.150374
0.307983
0.145961
0.450917
0.138249
0.546903
0.175689
0.117882
0.439052
0.131087
0.198739
0.0914465
0.172235
0.106296
0.161622
0.592582
0.132479
0.0938679
0.246381
0.146217
0.210979
0.059186
0.195635
0.480105
0.167864
0.109972
0.432747
0.430035
0.114832
0.080712
0.190944
0.0607676
0.174134
0.412714
0.155652
0.473786
0.189986
0.139507
0.230466
0.274212
0.107351
0.122348
0.129433
0.480298
0.112002
0.103954
0.187658
0.0938881
0.182013
0.0592937
0.155343
0.590464
0.0968672
0.0802515
0.161512
0.0883512
0.15978
0.168312
0.213043
0.0758291
0.119685
0.326734
0.183707
0.211054
0.253582
0.168428
0.166469
0.147197
0.165983
0.455938
0.13225
0.378655
0.125465
0.0882866
0.152743
0.587326
0.105396
0.15578
0.236968
0.0756211
0.118429
0.0672252
0.194374
0.158738
0.113346
0.266865
0.190352
0.0994436
0.155839
0.0772263
0.273092
0.451376
0.148497
0.0759665
0.130136
0.0640568
0.157925
0.117956
0.26555
0.129613
0.138886
0.15778
0.150602
0.300468
0.143498
0.388656
0.143061
0.10433
0.247553
0.0565508
0.133468
0.159157
0.223331
0.459617
0.153912
0.262733
0.129672
0.0636713
0.213333
0.438821
0.126768
0.12153
0.199281
0.076896
0.22025
0.095799
0.145172
0.140084
0.19946
0.257566
0.156762
0.0896005
0.190305
0.102906
0.168496
0.101974
0.148037
0.427885
0.132183
0.0787234
0.129818
0.15664
0.161507
0.0678794
0.14706
0.294258
0.234028
0.190174
0.426631
0.101705
0.207296
0.147159
0.435519
0.424483
0.182933
0.0799723
0.170191
0.159687
0.202302
0.548712
0.113104
0.34184
0.192763
0.12243
0.162445
0.102432
0.15415
0.135463
0.13963
0.285151
0.200378
0.133435
0.168532
0.187876
0.194309
0.145046
0.184199
0.123684
0.198196
0.100678
0.180397
0.185014
0.185014
0.10486
0.17889
0.211243
0.253586
0.405422
0.185194
0.0690546
0.19889
0.182877
0.240463
0.462202
0.117387
0.0830437
0.15228
0.0978632
0.190656
0.351933
0.164135
0.24143
0.276354
0.396246
0.124618
0.382454
0.173167
0.105978
0.289613
0.199782
0.179915
0.13098
0.247906
0.217714
0.240853
0.160362
0.155971
0.103136
0.159995
0.112667
0.174309
0.16143
0.187705
0.0756933
0.196463
0.0949582
0.188771
0.0552737
0.165557
0.148764
0.241035
0.128586
0.170844
0.114378
0.257827
0.207256
0.234482
0.206828
0.241358
0.100274
0.177636
0.287964
0.166739
0.164617
0.205153
0.0950459
0.121709
0.0664932
0.114698
0.0802905
0.825587
0.691537
0.0854502
0.691972
0.0926905
0.824799
0.0855969
0.144872
0.124751
0.152914
0.126566
0.0753452
0.146556
0.0420551
0.0927099
0.108905
0.120482
0.238962
0.0987273
0.0690924
0.117244
0.0944733
0.128263
0.132127
0.140397
0.113206
0.148453
0.0757713
0.123236
0.0625253
0.145864
0.0711662
0.171155
0.0909075
0.136088
0.0683382
0.12144
0.67604
0.0898281
0.0608582
0.169458
0.84242
0.0906871
0.114438
0.139849
0.113655
0.186328
0.445449
0.104954
0.0999012
0.133814
0.841543
0.0939125
0.0636504
0.135309
0.257423
0.102509
0.0630879
0.122213
0.734663
0.0886731
0.138341
0.156341
0.133628
0.139952
0.0603452
0.116141
0.290733
0.0920016
0.112764
0.136183
0.120611
0.130975
0.113966
0.301782
0.284441
0.164738
0.235793
0.178334
0.110306
0.158186
0.122706
0.157287
0.113303
0.171897
0.553989
0.122552
0.0750659
0.15937
0.105587
0.116723
0.0978161
0.454391
0.101619
0.124313
0.0823285
0.144764
0.404616
0.0940019
0.117805
0.131159
0.173125
0.166174
0.283026
0.14007
0.45008
0.110692
0.127995
0.140669
0.446388
0.102089
0.464495
0.105952
0.0673519
0.196127
0.60221
0.143401
0.209347
0.157873
0.0638528
0.116478
0.0969354
0.187893
0.482879
0.0913
0.143336
0.356322
0.105436
0.437015
0.120444
0.20074
0.0532629
0.105188
0.0676657
0.198143
0.133874
0.175224
0.191795
0.183884
0.378532
0.118839
0.136127
0.138668
0.0664549
0.12298
0.174356
0.116329
0.162028
0.199894
0.13548
0.140837
0.108343
0.143421
0.236373
0.111756
0.096378
0.154918
0.0900503
0.116836
0.0643599
0.13754
0.0852541
0.197124
0.243499
0.142886
0.289073
0.163019
0.466326
0.110496
0.0689199
0.120452
0.122438
0.172425
0.138797
0.131325
0.0543955
0.140209
0.135579
0.304117
0.13895
0.157752
0.101503
0.148677
0.255014
0.116139
0.0886771
0.145043
0.197998
0.124014
0.114525
0.477121
0.46329
0.109467
0.154797
0.250252
0.085225
0.177377
0.474531
0.120714
0.0779389
0.160045
0.224551
0.163238
0.131004
0.125252
0.0983362
0.171892
0.395012
0.132174
0.137679
0.252591
0.0752206
0.144067
0.0775662
0.153047
0.107544
0.163077
0.118407
0.243602
0.0710469
0.13239
0.166515
0.152714
0.345046
0.10741
0.136164
0.228505
0.0885258
0.145851
0.0945541
0.143158
0.0982715
0.181187
0.358066
0.128241
0.137278
0.374025
0.151725
0.150358
0.0840495
0.138917
0.215155
0.202539
0.135946
0.221002
0.283112
0.140728
0.218353
0.136806
0.327672
0.130153
0.0953388
0.171922
0.147981
0.167191
0.0764588
0.150446
0.447972
0.13244
0.0895489
0.158148
0.130325
0.182666
0.107806
0.133757
0.166502
0.201665
0.106314
0.161065
0.171509
0.247059
0.32013
0.120249
0.137368
0.171766
0.120445
0.186186
0.167953
0.146581
0.128481
0.223162
0.166668
0.150602
0.423462
0.119759
0.197691
0.194464
0.174778
0.16113
0.141878
0.134113
0.295234
0.158835
0.233103
0.153666
0.166664
0.186476
0.110988
0.191691
0.0856661
0.180244
0.108102
0.246861
0.15551
0.22429
0.159352
0.155209
0.294268
0.139442
0.14002
0.224583
0.367032
0.142284
0.0995727
0.167952
0.274205
0.151871
0.160953
0.21352
0.104747
0.198803
0.210303
0.143628
0.214054
0.224387
0.239847
0.163981
0.134859
0.157391
0.188767
0.134168
0.134498
0.225972
0.0868595
0.211622
0.196055
0.198866
0.051026
0.138112
0.176322
0.213662
0.308229
0.12083
0.0975379
0.206659
0.314298
0.131334
0.153675
0.169665
0.146667
0.192503
0.104773
0.185369
0.379804
0.145589
0.10569
0.227094
0.200665
0.1832
0.11495
0.209006
0.220007
0.18653
0.124586
0.229743
0.305508
0.163944
0.23212
0.208135
1.14962
0.0863844
0.152846
0.0934657
0.981175
0.0766164
0.82584
0.0874113
0.825333
0.0804089
0.0709756
0.11864
0.0686115
0.112555
0.0818978
0.820714
0.820427
0.0833501
0.186406
0.093497
0.0526884
0.101251
0.125795
0.143876
0.767829
0.0865842
0.076996
0.127727
0.184603
0.0891451
0.170642
0.107882
0.0811232
0.115727
0.0722577
0.137525
0.0992109
0.128604
0.0367842
0.0997932
0.165882
0.0960235
0.84277
0.0819138
0.13161
0.139833
0.669353
0.0875791
0.0890969
0.160814
0.262732
0.103116
0.841933
0.0892956
0.194005
0.103374
0.357152
0.0971281
0.326546
0.0965879
0.728565
0.0894923
0.583182
0.074845
0.0981632
0.14756
0.124208
0.123967
0.0882502
0.534195
0.109232
0.158534
0.307105
0.11767
0.0737376
0.142365
0.107
0.118414
0.720377
0.0911636
0.118561
0.12842
0.452853
0.0982872
0.0654933
0.107198
0.101414
0.108088
0.302444
0.122847
0.056197
0.127431
0.11808
0.159073
0.128964
0.127794
0.0901543
0.148151
0.533166
0.0957874
0.123365
0.147389
0.0959333
0.154749
0.118155
0.199158
0.486943
0.0928211
0.0552309
0.0995763
0.176567
0.163551
0.149706
0.165636
0.106816
0.146684
0.0863722
0.135933
0.257568
0.145717
0.0901402
0.130383
0.133742
0.168278
0.478412
0.100702
0.19774
0.100491
0.0974946
0.126373
0.100669
0.126632
0.316602
0.131192
0.104062
0.172027
0.115094
0.172228
0.686665
0.0890012
0.111631
0.119781
0.0767026
0.121795
0.435102
0.10296
0.143062
0.198878
0.0697507
0.134886
0.0752936
0.196268
0.149816
0.161316
0.297707
0.120307
0.280686
0.11462
0.350206
0.131807
0.486805
0.100409
0.48232
0.0988386
0.0541222
0.135863
0.0858594
0.118332
0.109595
0.156185
0.268614
0.130751
0.105432
0.140167
0.114996
0.134582
0.107171
0.136443
0.346099
0.100107
0.399885
0.128107
0.383074
0.110422
1.10087
0.0919255
1.10065
0.976543
0.728416
0.719924
0.222812
1.09792
0.195641
0.160118
0.711129
0.108262
0.976099
0.690481
0.286641
0.132161
0.975291
0.483667
0.933909
0.095362
0.689874
0.0973121
0.48235
0.166911
0.932129
0.243337
0.677146
0.667114
0.215265
0.101305
0.476858
0.926307
0.219482
0.101968
0.663803
0.303327
0.431829
0.924062
0.179299
0.121983
0.659315
0.110178
0.298402
0.18439
0.16266
0.0986134
0.922576
0.37413
0.304229
0.106942
0.371194
0.836201
0.58282
0.217506
0.344415
0.159746
0.653954
0.18151
0.247741
0.831658
0.211641
0.0895797
0.582113
0.244324
0.23854
0.180266
0.576293
0.111515
0.230122
0.143903
0.335829
0.113545
0.830951
0.135484
0.573786
0.229932
0.825041
0.214868
0.563561
0.118258
0.202194
0.172774
0.649909
0.622867
0.320299
0.222911
0.299253
0.112573
0.200442
0.106973
0.22194
0.173743
0.618328
0.109275
0.824402
0.143386
0.56045
0.271134
0.600437
0.13625
0.557753
0.121155
0.314413
0.202944
0.820282
0.0878853
0.819945
0.81435
0.223796
0.534679
0.274376
0.160242
0.529838
0.238155
0.259989
0.102355
0.266181
0.1608
0.596568
0.148798
0.81269
0.761049
0.457818
0.110617
0.760269
0.185802
0.522109
0.419609
0.409054
0.302978
0.358484
0.165781
0.252505
0.12285
0.210706
0.147774
0.758404
0.137881
0.594103
0.147901
0.290742
0.18441
0.396158
0.257848
0.577451
0.161671
0.450997
0.11364
0.757552
0.274359
0.294021
0.23989
0.364352
0.2876
0.552618
0.345758
0.369376
0.144173
0.337191
0.223719
0.750992
0.132764
0.749606
0.708863
0.402106
0.125402
0.550457
0.192793
0.350967
0.168361
0.705683
0.117793
0.548653
0.166944
0.392276
0.243655
0.28794
0.237234
0.310308
0.291259
0.329135
0.181935
0.701629
0.158861
0.316306
0.219253
0.694418
0.140445
0.495917
0.192279
0.540665
0.499643
0.594513
0.427116
0.509434
0.328231
0.442425
0.154734
0.436024
0.171758
0.417649
0.19514
0.532056
0.208629
0.497493
0.297147
0.38408
0.327057
0.44504
0.245976
0.387016
0.2795
0.504992
0.27041
0.408909
1.09999
0.134246
0.136977
1.09721
1.09634
0.146502
0.726969
0.131972
0.715528
0.189395
0.713825
0.137678
0.152523
0.195859
0.138337
0.169456
0.156478
0.154064
0.140683
0.709289
0.135846
0.162447
0.70657
0.159911
0.214954
0.238809
0.0924375
0.209098
0.162745
0.210361
0.148479
0.223306
0.0912134
0.157287
0.143273
0.201606
0.674503
0.153561
0.478377
0.140107
0.130254
0.93128
0.930396
0.131963
0.687462
0.150841
0.664604
0.149443
0.125243
0.200089
0.660704
0.15977
0.0584571
0.160104
0.276702
0.175284
0.922952
0.14163
0.0988639
0.168661
0.921566
0.137113
0.657116
0.141913
