# vtk DataFile Version 3.0
Tree
ASCII
DATASET POLYDATA
POINTS 1582 float
162774 225274 273.8
162774 225274 10273.8
141774 225774 23773.8
135122 214198 30497.8
137117 217671 28480.6
133774 207774 55941.8
134777 210743 47703.4
152858 203774 58773.8
135479 212821 41936.6
111774 199774 52085.8
133085 207651 54645
125774 197774 71981.8
149848 202695 58311.4
162774 191958 69773.8
125788 199496 67971.8
111774 191026 76773.8
154760 198615 62667
150894 195774 82773.8
115978 193567 74133
95773.8 185006 60773.8
152054 196626 76741.8
169774 184774 92393.8
160087 192667 65843.4
172774 172774 67589.8
125778 198290 70778.6
125774 193982 91773.8
125775 195274 85475.4
139774 195998 96773.8
168968 178742 67065.8
177782 172774 82773.8
101688 186430 66849.4
87509.8 173774 70773.8
171632 174564 67432.6
175230 152774 61773.8
167421 184119 91802.2
179782 172774 104774
91949.4 177849 71360.2
83773.8 171242 84773.8
125774 194369 89884.2
113774 194002 110774
174151 159311 63471.4
170014 153774 45773.8
112154 191269 76895.8
96773.8 182054 88773.8
174551 172991 75879.4
181774 155998 81773.8
121214 194230 97822.2
129774 195998 112774
138654 195144 94774.2
155774 193982 105774
175257 153971 63335.4
179974 133774 65773.8
177035 173597 102251
183998 156774 111774
88841.8 174996 70949.8
79545.8 155774 70773.8
97775.4 183804 88799.8
82773.8 177774 102442
115783 194591 109354
113774 197774 125610
127323 195769 110680
128774 197774 126654
128339 197172 121862
144774 195998 128774
178559 139833 65042.2
183986 132774 78773.8
181909 161821 108917
183998 159774 126774
82377.8 162082 72655.4
76533.8 152774 83773.8
179549 135591 65554.2
178018 122774 54773.8
154009 192615 103934
169038 187774 111774
180085 158013 82687.4
183998 143774 91773.8
182933 157248 111017
183998 141774 116774
81272.2 156891 71173.4
81561.8 140774 66773.8
79080.2 157056 81529
76773.8 154774 101890
114377 194179 110348
98653.8 191774 112774
78453.4 158767 96233
79477.8 165774 110774
86948.6 179822 100485
83661.8 180774 114774
114297 197092 124193
112774 199886 143774
143519 195751 126562
159074 193774 128774
128552 197501 126187
128774 198014 140774
128707 197860 136398
143774 195982 149774
183678 146416 115047
181942 133774 138774
178958 173021 104017
177230 177774 118774
178477 126619 58007.8
185258 128774 37773.8
183721 142321 116033
183186 128774 117774
182539 135931 126215
181834 127774 129774
183434 158647 123633
183998 147774 138774
77297.8 154059 83100.2
79569.8 135774 84773.8
82072.2 142885 67961.8
85765.8 124774 66773.8
181062 134637 137670
177946 133774 152774
183629 152419 135040
182774 153774 149958
113931 197569 125185
96773.8 191774 135102
77277.8 155972 100193
80773.8 139522 106774
112169 196862 137174
103774 186866 156774
85118.6 179957 113436
87729.8 176774 132774
139254 196545 145761
135774 197994 163774
110547 193878 148206
113574 194774 159774
78606.2 149721 102693
81581.8 147774 118774
142418 196151 148570
158774 192014 144774
85604.2 177112 120524
83549.8 165774 126774
181298 130301 129783
175842 120774 140774
183829 159436 125831
181978 167774 127774
84878.6 132002 65159
90773.8 120774 51589.8
181673 128532 129777
179774 118750 124774
102046 193242 130465
91541.8 187774 126774
178881 134033 148243
172774 124774 151962
176535 177989 116572
172774 183974 127774
79528.6 139171 85581.8
83657.8 124774 93773.8
179834 119647 124695
177818 110774 118774
86156.6 125458 66908.6
90773.8 111594 71773.8
179792 119019 124750
173774 110774 130978
105323 187206 155078
101774 175774 161182
174606 127551 150846
168402 127774 165774
81715 141407 67130.2
85773.8 139774 51609.8
138374 196909 161090
141082 195774 174774
182276 154072 148221
179774 156774 165066
80888.6 141051 107076
85773.8 130774 116802
178053 134445 152085
175842 137774 161774
88571.8 176909 131803
93773.8 176774 146806
83471 127121 91142.2
90285.8 113774 90773.8
84657 167295 126347
87497.8 154774 135774
112666 194505 156303
113774 182774 174866
84123.8 125319 93206.6
87773.8 118774 100814
183947 159672 126491
183230 163774 139774
89653.8 115632 69091
94317.8 105774 64773.8
177796 111769 119828
173774 100774 114886
85273.4 161741 128952
83581.8 151774 126774
174559 112771 130808
167774 109138 141774
85610.6 133223 116074
90773.8 127774 125318
175013 180812 124497
177218 179774 138774
172745 127618 155324
162774 117510 158774
92192.6 175281 142390
95485.8 165774 152774
168507 127592 164101
160774 126774 173974
103064 176912 160514
102326 166774 165774
174009 111373 130927
167774 101774 130434
179609 155064 162047
173774 149774 175986
113055 184401 170009
110774 171774 175970
168433 127719 165272
169774 135774 171970
87908.2 119350 99734.2
95773.8 110270 107774
143367 196033 149413
153774 191774 159890
177392 153054 167343
173998 163774 178774
157779 191819 145125
169242 187774 142774
89787.4 115805 92011.8
96293.8 105774 94773.8
113301 194693 158733
123774 199774 163886
164239 128183 171100
161774 134330 183774
94449.4 106128 65595.4
100118 95773.8 62773.8
182973 163647 137727
180014 170774 150774
85725 131508 116583
90773.8 120774 113958
175805 105222 115315
175930 98773.8 102774
94070.6 109247 92326.2
100398 99773.8 85773.8
169714 104433 129534
166042 96773.8 122774
90326.6 128965 124426
97537.8 125774 136774
166862 97265 122729
164774 89773.8 114890
103195 168531 165334
107114 159774 172774
174480 151482 174639
169774 153774 187974
111950 174343 175666
114774 165774 185294
165337 91213.4 115450
164774 85609.8 103774
173341 162023 178251
167774 169774 189970
151464 192844 155647
163294 188774 155774
95497 111357 107105
103774 103774 114574
153081 192095 158617
150774 188774 171962
99794.2 101492 87963
108290 93773.8 88773.8
165803 188987 143479
172774 183250 151774
99966.2 107262 111138
101130 109774 121774
175190 98877.4 104547
173430 91773.8 94773.8
89259 123994 114745
95033.8 117774 121774
165514 87169 104761
166774 84773.8 93953.8
99607.4 96791.4 61996.6
104774 87573.8 56773.8
171186 153086 183973
164774 144226 189774
95047 128011 133739
97773.8 133774 145970
102022 105378 112993
108686 95773.8 106774
107082 159776 172073
111478 149774 178774
103702 97941.4 88335.8
107122 91773.8 77773.8
171172 184057 150934
174774 177954 161774
107057 92001 79297.4
111774 83773.8 68125.8
164996 86077.4 104070
155774 79773.8 99885.8
110159 152775 176763
113774 154774 187074
168017 168811 187198
158774 177842 192774
152352 188501 170159
153774 184006 180774
101871 108134 118461
109998 105774 130774
173809 92851.8 95101.4
172774 87505.8 84773.8
165667 84860.6 96286.6
161294 80773.8 89773.8
97006.2 133618 143620
97549.8 143774 152774
96790.6 126445 135863
102290 115774 133774
111394 149904 178449
115686 139774 183774
112446 84446.6 70762.2
119566 76773.8 64773.8
173117 180761 156788
166774 183774 168810
97820.6 136802 147945
101774 136774 156862
173801 163249 178617
173774 172970 172774
113025 146055 180472
112358 135774 174774
172240 87866.6 87002.2
166962 79773.8 80773.8
172613 87614.2 85442.2
176558 85773.8 75773.8
113716 153674 185788
120330 150774 197774
106259 106859 125110
118574 95773.8 124774
109644 106067 130365
114678 105774 138774
87753.8 155881 135285
91589.8 148774 143774
168069 80683.4 80527
164886 73773.8 72773.8
101235 137341 155702
105546 140774 165774
113195 136486 175021
114774 129506 170774
118561 150529 193719
124234 141774 198774
115820 140427 183442
121774 132330 187774
154055 186377 174091
161774 181994 177774
113752 106413 137857
117774 109774 148442
116231 97787 123745
125590 88773.8 116774
114400 105965 138499
124666 97773.8 136774
119122 102197 137705
127774 101774 145962
88534.6 130583 121252
89593.8 137774 132774
114959 107421 141032
109774 116222 146774
124852 90817.8 119285
133650 85773.8 117774
125858 102588 145123
130774 106774 155890
89518.6 152611 139190
92773.8 156774 147970
111249 114960 146897
109118 121774 153774
131008 86973.8 117043
136774 81733.8 108774
109116 120229 151114
103774 127774 151970
122266 92908.6 120623
134774 89545.8 126774
95151 165511 151032
97589.8 156774 157774
109117 121310 152976
113774 122774 162890
134121 84144.2 112577
128774 83493.8 100774
130378 83689 104315
135594 80773.8 95773.8
116928 109953 147843
118774 113774 156890
118946 113162 155551
123566 116774 164774
122348 116405 163544
123774 121106 173774
123200 116663 164405
131774 111774 165182
138514 220101 27068.6
143774 211986 34773.8
134971 215365 30207.8
126774 209886 35773.8
142774 213894 34513.4
146774 209966 47773.8
125392 208061 44047
119774 207006 40773.8
133593 208578 52562.6
122774 204006 55773.8
133567 207737 55552.6
136774 205774 61209.8
128364 203181 61310.6
121774 200774 61325.8
121923 200750 61446.6
114774 197938 61773.8
135371 205901 60293.4
134774 201774 68805.8
135144 204333 63528.2
144774 201930 68773.8
134642 201758 68365.8
133774 198062 74773.8
115864 198394 61281
108774 195774 58885.8
152122 197589 71680.2
145774 198530 75773.8
157771 192290 81092.6
163258 189774 78773.8
109650 195554 58692.6
101774 191246 54773.8
108691 191315 68400.6
105774 191774 64125.8
125077 196844 75884.2
120774 193774 78901.8
111888 191099 76810.6
103774 187190 75773.8
150396 196172 80740.2
143774 195998 86773.8
162617 189613 78979.8
169258 183774 75773.8
167957 184816 77199.4
172774 179954 79773.8
103385 186553 80604.6
98465.8 183774 79773.8
125565 195745 82597.8
118418 191774 87773.8
171326 180137 94759.4
176774 175970 92773.8
96429.4 181796 69285.4
89773.8 177258 61773.8
122947 194283 94805.8
114774 191814 94773.8
172158 169215 65011
170530 165774 57773.8
98839.8 183798 80106.2
92773.8 179890 79773.8
115861 191942 94362.6
106774 187970 91773.8
139438 195742 96173.8
139774 195998 106774
176523 167097 77283
177966 159774 72773.8
94593.8 181062 79873.4
91577.8 178774 85773.8
85899.4 171918 77926.2
83773.8 169382 78773.8
115100 191852 94650.2
110774 191874 99773.8
139677 195923 106640
139774 195998 113774
181267 156602 82047.8
179986 148774 73773.8
172561 155032 56228.6
172018 148774 52773.8
179045 168902 103844
181998 162774 100774
84524.6 166559 71095
81553.8 161774 65773.8
181449 163631 101883
[...]
CELL_DATA 1581
SCALARS radius float
LOOKUP_TABLE default
2.122e-314
100
100
1.1505
1.14906
0.131897
0.995612
0.804211
1.1465
0.216205
0.220439
0.991408
0.0745981
0.803172
0.731984
0.831681
0.753091
0.448095
0.457439
0.782389
0.746481
0.210789
0.0852211
0.442843
0.0597507
0.731852
0.711523
0.296006
0.378718
0.313071
0.0990008
0.781048
0.0745493
0.377752
0.074837
0.741653
0.772103
0.231253
0.0678476
0.711317
0.188444
0.350099
0.102553
0.455714
0.10742
0.305587
0.576877
0.539265
0.203804
0.251475
0.0806102
0.345115
0.325123
0.716973
0.0688312
0.77192
0.0727594
0.436996
0.155698
0.572427
0.0813127
0.537965
0.501065
0.307473
0.313102
0.204428
0.633526
0.46516
0.414342
0.728828
0.0896968
0.310629
0.193053
0.149678
0.181643
0.260618
0.0688267
0.633256
0.0743417
0.413542
0.64532
0.488559
0.0579258
0.152978
0.471021
0.211922
0.427177
0.169363
0.249651
0.550728
0.271587
0.171453
0.0553895
0.500839
0.496542
0.131522
0.176326
0.62773
0.0643673
0.32428
0.285934
0.170061
0.0687458
0.172771
0.540443
0.445472
0.236395
0.437799
0.210564
0.637759
0.39187
0.190063
0.080214
0.442524
0.422906
0.173718
0.0528387
0.248859
0.468432
0.119659
0.106138
0.541375
0.414423
0.114971
0.44719
0.310839
0.365304
0.477889
0.443725
0.24891
0.326306
0.379568
0.336287
0.316028
0.530975
0.201259
0.215294
0.147838
0.352234
0.254453
0.0648815
0.530652
0.209119
0.18437
0.417242
0.241129
0.0855406
0.282491
0.122629
0.635233
0.427171
0.415011
0.0675257
0.351405
0.0517342
0.426918
0.0858576
0.463852
0.391904
0.231745
0.0621665
0.18782
0.181181
0.273206
0.133974
0.418376
0.0776905
0.44293
0.0784529
0.225613
0.0820962
0.277571
0.599208
0.335003
0.0893373
0.334172
0.176517
0.320749
0.116462
0.597738
0.0507693
0.214348
0.332714
0.187222
0.410518
0.131933
0.142124
0.325373
0.408585
0.212528
0.230889
0.418561
0.203203
0.225121
0.338605
0.277503
0.126994
0.268411
0.244388
0.289353
0.0848957
0.456624
0.0680575
0.407955
0.409545
0.151618
0.12001
0.308448
0.0748158
0.242028
0.15337
0.592838
0.0608852
0.325598
0.320589
0.329404
0.356474
0.143378
0.0885966
0.326108
0.075541
0.171779
0.141977
0.277478
0.143822
0.323503
0.0967142
0.196562
0.0703051
0.228695
0.384339
0.231517
0.110107
0.316811
0.396431
0.159093
0.0862478
0.411381
0.373895
0.215676
0.452063
0.141349
0.106075
0.31667
0.26649
0.199909
0.103403
0.37124
0.178758
0.310828
0.297782
0.200932
0.0756646
0.589894
0.087131
0.295275
0.104224
0.307294
0.114334
0.35251
0.205159
0.579997
0.0985812
0.382165
0.117696
0.217793
0.277216
0.29379
0.176875
0.247219
0.227511
0.240022
0.36617
0.264624
0.14613
0.176675
0.0739383
0.439769
0.131834
0.298983
0.318887
0.206927
0.103405
0.294802
0.0929017
0.273693
0.269076
0.403241
0.136263
0.28083
0.266041
0.168951
0.103131
0.577688
0.0952066
0.361884
0.213765
0.222538
0.112533
0.362593
0.153512
0.246143
0.0679354
0.396927
0.205163
0.257052
0.236314
0.267914
0.161041
0.351678
0.0822362
0.172758
0.273387
0.347886
0.267056
0.304905
0.0945797
0.263042
0.241845
0.17475
0.498136
0.410514
0.491851
0.166554
0.090874
0.322993
0.206535
0.269326
0.114384
0.337959
0.114937
0.242548
0.166633
0.211928
0.223214
0.232862
0.15945
0.245387
0.350164
0.423679
0.109932
0.407869
0.0667602
0.349353
0.184356
0.331326
0.412641
0.145309
0.336206
0.336342
0.362491
0.170912
0.223244
0.283727
0.16431
0.275322
0.109291
0.315365
0.322449
0.241617
0.177419
0.280362
0.374738
0.235068
0.192876
0.229971
0.10371
0.27555
0.289873
0.209302
0.165925
0.270483
0.325796
0.15069
0.106534
0.321954
0.209598
0.289106
0.0973768
0.202344
1.14963
0.151142
0.0610692
0.12738
0.0765893
0.14428
0.198543
0.120552
0.995028
0.120233
0.209716
0.114175
0.989035
0.191105
0.0397938
0.190528
0.066727
0.20744
0.112083
0.195903
0.0553058
0.187008
0.176162
0.113173
0.752042
0.121248
0.167358
0.743666
0.0747848
0.171549
0.781578
0.114184
0.0884376
0.731083
0.0356579
0.101096
0.0729691
0.207833
0.0586916
0.164916
0.126712
0.134824
0.441233
0.205973
0.728205
0.166258
0.162451
0.739046
0.778957
0.148845
0.703923
0.223118
0.137755
0.36913
0.102094
0.189742
0.112684
0.213093
0.0603576
0.202024
0.287222
0.169177
0.0871143
0.172931
0.218388
0.12496
0.0490095
0.212225
0.0537384
0.172533
0.0736906
0.177506
0.122692
0.169211
0.708016
0.238945
0.770981
0.100356
0.222567
0.137813
0.0755226
0.208988
0.123647
0.204285
0.437667
0.12736
0.292683
0.141068
0.185543
0.12036
0.0990671
0.175606
0.0737245
0.134009
0.212732
0.111814
0.105753
0.742953
0.0933059
0.174825
0.217279
0.181851
0.162014
0.143294
0.0977172
0.134262
0.567323
0.158804
0.162088
0.419252
0.148227
0.140626
0.303222
0.105944
0.40624
0.11166
0.409033
0.11168
0.492504
0.14362
0.0864309
0.149765
0.214022
0.217074
0.0821747
0.209905
0.315891
0.137127
0.0529194
0.209443
0.163261
0.266962
0.177194
0.211969
0.138713
0.155869
0.432459
0.144752
0.0879254
0.212369
0.147075
0.18563
0.443401
0.107074
0.148599
0.190813
0.180723
0.121427
0.636753
0.107036
0.411329
0.116535
0.113039
0.180993
0.120993
0.160801
0.285082
0.202899
0.0604527
0.139703
0.0911892
0.196887
0.0792346
0.121138
0.194636
0.120999
0.0850285
0.166644
0.152785
0.159605
0.364044
0.15298
0.279945
0.212708
0.297536
0.154576
0.270532
0.139993
0.224522
0.160438
0.0959406
0.162286
0.181116
0.211645
0.228732
0.1271
0.0760634
0.143217
0.125997
0.166615
0.4576
0.158494
0.0868343
0.227608
0.46483
0.197688
0.113988
0.146501
0.314389
0.124383
0.116009
0.213684
0.0993968
0.174188
0.123375
0.198987
0.136165
0.17326
0.128194
0.213155
0.0825188
0.208486
0.0642955
0.126633
0.0629533
0.139683
0.143004
0.220445
0.118749
0.153413
0.0499479
0.113316
0.175952
0.181325
0.241767
0.193441
0.0943017
0.185048
0.122902
0.198558
0.0744857
0.183207
0.113126
0.158734
0.59624
0.117003
0.138283
0.134342
0.0841944
0.142417
0.193922
0.346095
0.0810884
0.173699
0.174411
0.17552
0.0545741
0.151031
0.0971811
0.145238
0.0872539
0.149813
0.590308
0.138479
0.123362
0.219198
0.0858433
0.126472
0.07373
0.216382
0.112337
0.126566
0.106194
0.207496
0.440465
0.190654
0.166281
0.212043
0.0915341
0.186871
0.0983686
0.236486
0.153697
0.158259
0.407418
0.125838
0.134385
0.18669
0.345626
0.136018
0.174839
0.225945
0.13251
0.179521
0.294738
0.156699
0.207905
0.215002
0.176394
0.184572
0.082663
0.202433
0.0892061
0.183909
0.146517
0.190259
0.0864985
0.180477
0.0470363
0.189296
0.0816262
0.17088
0.0988621
0.234296
0.0726847
0.147877
0.1439
0.194438
0.29114
0.174926
0.0768717
0.171684
0.0824917
0.162123
0.274319
0.236412
0.155304
0.223519
0.191081
0.198028
0.364067
0.196264
0.107051
0.250708
0.360014
0.165126
0.178968
0.195434
0.0869495
0.18952
0.161011
0.208309
0.163571
0.224942
0.0520934
0.164838
0.102321
0.197799
0.0868144
0.167295
0.179588
0.247048
0.0821119
0.173673
0.250863
0.16686
0.287438
0.263784
0.120529
0.255114
0.0705879
0.220836
0.18465
0.199776
0.127859
0.206099
0.165075
0.201066
0.117348
0.209187
0.29359
0.203198
0.160838
0.214984
0.241569
0.275569
0.136011
0.155357
0.125933
0.185593
0.110671
0.213783
0.0793951
0.164999
0.302286
0.155261
0.163543
0.24177
0.0944436
0.214624
0.0698887
0.145502
0.119268
0.237411
0.164011
0.254657
0.177675
0.248325
0.154795
0.210144
0.189813
0.234832
0.156129
0.225764
0.146596
0.275953
0.123984
0.103151
0.212372
0.0808289
0.0750866
0.803993
0.0338016
0.113179
0.803386
0.0853721
0.155239
0.139153
0.186008
0.111621
0.188607
0.0931832
0.443892
0.135867
0.831381
0.0853579
0.0880389
0.145161
0.0864831
0.180628
0.107442
0.166946
0.0938809
0.441432
0.0689674
0.105093
0.201087
0.0945844
0.0910332
0.293108
0.0971338
0.742399
0.0839067
0.158805
0.0474674
0.0985527
0.439689
0.100489
0.0943598
0.134947
0.309949
0.0968625
0.289919
0.0933359
0.123632
0.133839
0.0898306
0.120106
0.0827476
0.126982
0.174253
0.143488
0.17684
0.160012
0.122952
0.149074
0.576241
0.0859275
0.139366
0.230686
0.0891315
0.130963
0.096063
0.167584
0.130354
0.138032
0.174251
0.145213
0.0501376
0.120836
0.130324
0.184806
0.0646816
0.144899
0.0687801
0.117588
0.182092
0.135821
0.130361
0.14736
0.253401
0.112666
0.0758261
0.172066
0.411789
0.0963908
0.339809
0.123132
0.484907
0.137431
0.0882036
0.124061
0.146476
0.119705
0.093476
0.132494
0.119731
0.150043
0.0768514
0.140034
0.571441
0.0989069
0.0858136
0.127547
0.0631913
0.117864
0.135904
0.141501
0.459663
0.140178
0.0988556
0.121382
0.0867381
0.16218
0.129164
0.192142
0.499599
0.0976417
0.099023
0.548681
0.127313
0.171339
0.186202
0.145207
0.0633964
0.113407
0.197408
0.114335
0.204076
0.110497
0.114677
0.115102
0.098081
0.128427
0.130922
0.154087
0.143536
0.187262
0.542731
0.174522
0.12079
0.135651
0.111039
0.114225
0.141936
0.109451
0.476456
0.0993012
0.147654
0.155062
0.0726703
0.113453
0.121828
0.166731
0.18608
0.119554
0.130199
0.114122
0.115933
0.12645
0.11349
0.146837
0.0782317
0.168828
0.135768
0.633159
0.115454
0.148475
0.337662
0.143539
0.0666861
0.128223
0.130935
0.133706
0.129425
0.155681
0.416358
0.101788
0.150039
0.136975
0.09324
0.149167
0.0797228
0.134823
0.0923635
0.119691
0.238914
0.189038
0.086745
0.14613
0.328273
0.130464
0.372835
0.110423
0.44078
0.107985
0.126413
0.177373
0.137688
0.186163
0.104738
0.127695
0.632255
0.10277
0.376036
0.114785
0.134946
0.175674
0.196613
0.125971
0.0772233
0.208161
0.0830503
0.169089
0.0731616
0.122294
0.111021
0.130291
0.1794
0.178737
0.100117
0.175962
0.118722
0.177211
0.127387
0.159819
0.134561
0.146496
0.0680731
0.169684
0.404794
0.116132
0.113221
0.196337
0.094242
0.169538
0.107509
0.153871
0.139504
0.172279
0.321183
0.115671
0.0716131
0.134935
0.097079
0.205031
0.140993
0.168284
0.143092
0.178518
0.299682
0.134472
0.308819
0.132076
0.126798
0.157716
0.168189
0.203826
0.0852799
0.151313
0.146159
0.169464
0.311239
0.118124
0.182824
0.175699
0.159852
0.138741
0.256519
0.16491
0.287051
0.12789
0.578781
0.106986
0.143099
0.156768
0.145288
0.180899
0.58843
0.115068
0.133466
0.180881
0.157257
0.223874
0.274965
0.165934
0.119962
0.201754
0.186623
0.185294
0.0954975
0.170019
0.172041
0.182998
0.163421
0.189479
0.096618
0.186137
0.245201
0.17925
0.105623
0.214306
0.179849
0.253707
0.132726
0.17349
0.397589
0.139567
0.123929
0.1467
0.15799
0.172079
0.133659
0.240684
0.107199
0.177272
0.186882
0.18996
0.327179
0.15294
0.102754
0.150281
0.175757
0.233744
0.0523497
0.167782
0.154837
0.249429
0.159526
0.205759
0.133049
0.242431
0.168625
0.220519
0.159225
0.216953
0.221346
0.157824
0.19398
0.23044
0.323855
0.133988
0.403333
0.130818
0.131807
0.157813
0.319681
0.142182
0.328794
0.135802
0.264508
0.163042
0.220554
0.150024
0.167066
0.173506
0.161035
0.231075
0.18927
0.175249
0.113712
0.197457
0.342272
0.150336
0.145776
0.183533
0.109085
0.203862
0.150576
0.220482
0.214323
0.223531
0.108472
0.092464
0.094352
0.0969763
0.102276
0.0874266
0.803707
0.0821104
0.0762027
0.100241
0.0850205
0.802854
0.80264
0.0745366
0.0951592
0.122379
0.0672675
0.130132
0.0897035
0.114008
0.0816202
0.107397
0.731514
0.081578
0.0552039
0.108613
0.109487
0.149487
0.117442
0.150791
0.0725903
0.12741
0.105221
0.141613
0.741907
0.0933256
0.0607129
0.137791
0.0561485
0.116141
0.780764
0.0803851
0.0880897
0.119672
0.367426
0.0885051
0.180007
0.0999484
0.375417
0.0997862
0.0809263
0.152791
0.7386
0.0900778
0.771547
0.0873707
0.0895783
0.110441
0.346574
0.108659
0.126163
0.141512
0.0792306
0.132695
0.116054
0.114446
0.199123
0.0944684
0.538584
0.0840518
0.18327
0.143777
0.0976885
0.16139
0.246528
0.0972664
0.0893008
0.131231
0.219311
0.119997
0.0941131
0.121278
0.135817
0.156138
0.0547738
0.153858
0.435873
0.0862453
0.463968
0.0917357
0.304725
0.118806
0.141873
0.146716
0.537017
0.0936577
0.107636
0.155954
0.727699
0.121541
0.0789838
0.109214
0.0539539
0.153771
0.0416962
0.109847
0.119189
0.124779
0.549754
0.0959918
0.0663263
0.130145
0.0532026
0.116095
0.632333
0.103477
0.100203
0.116284
0.105817
0.12955
0.105737
0.121198
0.417352
0.0999188
0.247099
0.157923
0.103394
0.117885
0.160965
0.104619
0.0681547
0.151399
0.0760523
0.102593
0.540484
0.0921126
0.0653112
0.114771
0.117977
0.161808
0.0716536
0.149784
0.0764874
0.14753
0.249052
0.100894
0.626798
0.103204
0.084937
0.151147
1.10636
0.0919183
1.10614
0.982454
0.733886
0.727957
0.191829
1.10344
0.19537
0.216914
0.717371
0.108093
0.981045
0.496282
0.935934
0.0938
0.495162
0.187419
0.711399
0.176691
0.93383
0.125377
0.492468
0.193557
0.929096
0.695486
0.255698
0.472385
0.241152
0.23676
0.686217
0.110216
0.470377
0.924292
0.162967
0.679462
0.179108
0.131832
0.923397
0.239987
0.442964
0.146469
0.677185
0.110396
0.231933
0.0945504
0.185724
0.1551
0.920663
0.295422
0.91041
0.317256
0.38026
0.139959
0.671591
0.25421
0.21071
0.114719
0.909802
0.169172
0.209405
0.112085
0.312522
0.237099
0.904402
0.147732
0.236354
0.17073
0.202893
0.202104
0.360189
0.256959
0.309904
0.097882
0.90402
0.141574
0.669487
0.194757
0.663948
0.202001
0.281394
0.897344
0.253278
0.83184
0.527724
0.511002
0.761835
0.164527
0.227626
0.121297
0.303581
0.0858133
0.526967
0.0855715
0.205896
0.115303
0.52512
0.105583
0.663057
0.648273
0.267156
0.140131
0.507465
0.240381
0.637063
0.0918737
0.761389
0.174133
0.247036
0.273043
0.479616
0.109273
0.523538
0.131793
0.760071
0.15386
0.505396
0.168856
0.242458
0.127465
0.635358
0.169909
0.631281
0.121567
0.759033
0.153543
0.474312
0.510105
0.220802
0.173323
0.498507
0.453473
0.312892
0.115988
0.758129
0.165485
0.446005
0.599691
0.329914
0.108739
0.598497
0.262612
0.413319
0.12651
0.471293
0.221808
0.751746
0.148221
0.749821
0.205094
0.280228
0.202918
0.396327
0.170382
0.314012
0.22254
0.454137
0.197892
0.591197
0.205373
0.744649
0.0944266
0.744143
0.533355
0.638533
0.311737
0.317343
0.175366
0.586008
0.193488
0.442113
0.313795
0.381487
0.164021
0.528133
0.106194
0.637553
0.212212
0.358206
0.296648
0.615383
0.219489
0.515182
0.195753
0.578634
0.142831
0.285172
0.135447
0.613188
0.199946
0.504941
0.582014
0.322067
0.216001
0.568422
0.170997
0.577052
0.150907
0.310621
0.475983
0.438495
0.239231
0.486366
0.196238
0.464594
0.225639
0.556315
0.25444
0.461949
0.26827
0.402084
0.333103
0.398582
0.198659
0.547739
0.340981
0.389152
0.286096
0.520377
1.10548
0.134445
0.981482
0.141152
0.73237
0.134686
0.723922
0.185458
0.143794
0.193393
0.157534
0.146581
0.100759
0.183808
0.13461
0.171204
0.715709
0.136804
0.128584
0.162016
0.980309
0.128498
0.114197
0.172063
0.160434
0.708669
0.138864
0.141589
0.204517
0.201354
0.12475
0.933087
0.123997
0.188031
0.931888
0.146257
0.134286
0.179069
0.170322
0.202718
0.706821
0.140546
0.0793321
0.156443
0.465299
0.149396
0.683585
0.154732
0.110933
0.190978
0.0847087
0.172555
0.925978
0.200396
0.922128
0.148029
0.673611
0.169746
0.157814
0.160276
