# vtk DataFile Version 3.0
Tree
ASCII
DATASET POLYDATA
POINTS 1732 float
40693.5 56318.5 68.45
40693.5 56318.5 2568.45
34443.5 55443.5 6443.45
33438.5 52817.5 12801.5
33740 53605.3 10894.1
37151.5 52322.5 13543.5
33518.5 52839.7 12700.4
33191.5 50837.5 17256.4
33289.6 51438.1 15889.6
28736.5 49352.5 17256.4
29791.5 49912.3 16641.6
25270.5 48857.5 14038.5
36645.3 52233.8 13439.5
38883.5 50342.5 16265.5
33260.2 51258 16299.6
36160.5 50094.5 17750.4
32240.2 50980.4 16115.2
29973.5 51332.5 14038.5
30486.1 51332.6 14131.4
29230.5 51827.5 11563.5
31505.6 50659.9 16273.1
30963.5 49352.5 19235.4
31551.9 50088.6 17793.9
33191.5 49847.5 19730.4
38187.6 50525.4 16028.6
38636.5 49104.5 18245.4
38778.6 50298 16240.5
40615.5 48857.5 17008.4
31481.4 51305.6 14946.7
31706.5 52322.5 13295.5
28145.9 49445.1 15955.4
26756.5 48609.5 16760.4
26999.1 49276.1 15052.2
26756.5 50094.5 13048.5
35316.6 50408.8 17510.3
35913.5 49847.5 20226.4
33791.6 54502.2 8050.86
32193.5 53193.4 8693.45
40475.6 48892.7 17064.6
41606.5 47867.5 17750.4
26960.5 50012.1 13485.6
27745.5 51084.5 12306.5
34036 54021.7 9399.16
35666.5 53312.5 10573.5
38667.1 49445.5 18129.2
39130.5 49104.5 19730.4
27173.3 48860.2 16518.9
27251.5 48362.5 18245.4
25728.4 48889.6 14437.3
23785.4 47372.5 15028.5
39160.2 49106.3 19303.5
40368.5 48362.5 20226.4
24373.8 47770.2 14946.6
24280.4 46877.5 16265.5
31033.1 49465.7 19174.1
30468.5 48857.5 20968.4
41266.8 48125 17641.6
41358.5 47372.5 18988.4
35330.1 50154.8 18990.6
34428.5 50094.5 20226.4
35750.8 52446.1 13072
35913.5 51579.5 14780.5
34533.3 50006.9 20100.6
33438.5 49352.5 21711.4
41504.6 47944.8 17717.8
42843.5 44154.5 16265.5
29704.3 51780.1 12170
30193.5 52443.4 10943.5
41543 47499.5 18752.9
44576.5 44402.5 24185.4
35695.2 49883.1 19995.4
35170.5 49104.5 21958.4
44166.7 44204.6 23528
46308.5 39699.5 27651.5
39861 48674.9 19838.8
39378.5 48114.5 21711.4
35560 49468.3 21518
37398.5 49352.5 28145.5
36948.8 49320.1 27895.9
37893.5 49104.5 34828.5
37147.1 49220.2 34030.8
35666.5 49352.5 40768.5
27088.7 48378.2 18091.4
26261.5 47372.5 20968.4
44453.6 44343.1 23988.2
44081.5 46134.5 30373.5
45728.5 39833.2 26850.7
46555.5 34007.5 29630.5
45985.9 35060.6 29503.6
44081.5 30294.5 34085.5
42502.1 44393.4 16220.2
42843.5 40689.5 14286.5
24065.9 47050.6 15903.1
20568.4 43164.5 20226.4
20993.3 43351.8 20263.3
18588.4 39947.5 24681.4
37835.7 49014 34551
43091.5 46877.5 37303.5
45338.4 33440.1 31061.5
44823.5 26829.5 28888.5
44675.7 28436.3 29646.4
40615.5 22869.4 30868.5
30584.8 49094.7 20823
29726.5 48857.5 24928.4
29606.9 48882.6 23767.4
24033.4 48114.5 27403.5
20695.9 43220.7 20237.5
19578.4 37472.5 16513.4
25122.5 47802.2 26941.4
21063.4 44402.5 31115.5
19541.8 40205.8 23623.6
20073.4 34254.5 26908.5
44665.6 27104.1 28887.9
43338.5 22374.4 24928.4
43418.1 23094.1 24953
41853.5 19157.4 19483.4
24360.1 48020.8 27264.9
23943.5 48693.4 32693.5
43379.6 45193.1 22095.5
45813.5 39699.5 20721.4
45052.3 40524.5 20503.3
45070.5 34997.5 16513.4
44962.1 35679.2 16491.3
44576.5 31532.5 11563.5
29703.2 48956.3 24833.1
30221.5 50094.5 31611.5
46134.5 39739.6 27411.2
46308.5 40937.5 33838.5
46153.2 40116.2 33034
45813.5 38709.5 39036.5
20008.6 35621.5 25747.1
21311.4 29552.5 23691.4
20235.1 34689.6 26790.1
22795.4 31779.5 32600.5
45489.4 38500.3 37970.1
42843.5 34502.5 42995.5
21654.7 30164.5 23903.8
24528.4 25097.5 22206.4
43616.8 36027 41708.8
41606.5 37719.5 47946.5
22068.8 32477.9 30358.5
25765.5 26582.5 30868.5
25321.9 27966.4 31250.6
29726.5 25097.5 34581.5
27348 26646.7 32782.8
31211.5 21879.4 29630.5
37263.6 49342.8 28070.6
40615.5 47867.5 26413.5
20227.3 38366.5 16683.5
21311.4 34749.5 12801.5
22090 44523.4 30127.2
20568.4 38709.5 32106.5
20812.7 36413.3 14587.2
21558.4 30294.5 16265.5
24311.1 48396.2 32011.8
25765.5 47867.5 38293.5
21024.9 40453.7 31512.7
23043.4 38214.5 37798.5
43075.5 34959.8 42609.5
41358.5 30294.5 40521.5
21806.1 31008.2 15562.7
23785.4 25097.5 15276.5
25700.4 47347.7 37427.8
27498.5 44649.5 42995.5
22764.2 38181.1 36023.2
25518.5 33017.5 39036.5
23143.2 38272.9 37568
25765.5 39204.5 42748.5
25433.6 33605.2 38095.5
28983.5 28562.5 38788.5
24033.1 25801.6 15620.7
27745.5 20147.4 16513.4
25191.5 38627.2 41462.6
28241.5 34749.5 45470.5
42886.5 40895 14273.5
43338.5 37719.5 12306.5
45574.5 39756.4 20667.6
46803.5 35739.5 21215.4
19773.1 37740.7 16564.4
19578.4 33759.5 20721.4
41811 47073.1 37184
44081.5 44154.5 41758.5
44074.4 30589.4 33338.5
41606.5 26334.5 34581.5
31099.6 22798.4 29612.4
34675.5 20394.4 26413.5
27861.3 35997.4 45120
30715.5 35244.5 49431.5
42290 37144 45825.7
42443.4 42943.4 47443.4
26467.8 48126.3 25989.2
22300.4 46134.5 23691.4
23506.2 46184.3 28212
19578.4 43659.5 26660.5
24950.1 47913.9 34503.2
28488.5 50342.5 36313.5
43295.7 45073 40645.3
42100.5 45392.5 44480.5
43362.4 22590.3 24935.8
39625.5 20147.4 26660.5
25567.7 27080.4 30776.6
26013.5 24107.4 26908.5
28245.5 34975.7 45227.9
30715.5 30047.5 44233.5
44858.9 42819.6 25344.9
45566.5 42917.5 28145.5
46165.2 40759 33752.8
45070.5 42669.5 36808.5
44074.4 30589.4 33338.5
45318.5 33264.5 37055.5
42459.1 45296.6 43329.9
38140.5 46629.5 44480.5
25757.9 39195.9 42572.6
27993.5 41432.5 45470.5
44532 42673 22090.8
46061.5 40194.5 23443.4
30713 49752.4 30350.7
33191.5 49847.5 33838.5
35971.1 49492.9 37055.1
32448.5 50837.5 38788.5
23029.5 38245.4 37104.6
24033.4 42669.5 39283.5
42793.3 34640.6 42935.2
40121.5 32522.5 45470.5
22815.9 45577.2 17165.8
21063.4 43659.5 16513.4
37629.1 49075.8 34395
41853.5 47867.5 33096.5
21626.9 32394.7 15056.8
23291.4 28809.5 12306.5
41864.6 41978.9 47136.5
39873.5 45392.5 47946.5
23741.5 46729.9 24247.6
23538.4 45392.5 20968.4
20179 41592.2 21808
18588.4 38214.5 20968.4
23370.8 39749.6 37845.4
22300.4 43164.5 35818.5
45600 38703.1 38839.1
44823.5 39947.5 42995.5
25247.1 23967.6 16162.8
26261.5 22622.4 19730.4
35303.2 49567.7 25012.9
33933.5 49847.5 27403.5
45038 35202 16506.8
46308.5 32274.5 18741.4
35806.6 49417.1 39060.3
38636.5 47867.5 41015.5
25546.6 33354.5 38770.7
26508.5 33759.5 41758.5
22641.9 46165.6 23763.3
21311.4 44154.5 22453.4
42553.7 46959.7 37253.3
44328.5 45392.5 34333.5
27495.5 49554.9 36202.7
29230.5 50094.5 39530.5
26952.5 30804.8 37953.4
27003.5 28314.5 36313.5
44929.4 38959.9 18486.6
44576.5 38957.5 15771.5
22561.7 41985.3 36338.6
21063.4 42174.5 33838.5
20936.8 32678.2 25260.1
22053.4 29799.5 27403.5
28723 29278 38808
32200.5 28067.5 41015.5
27542.9 48440.6 25418.1
27251.5 49104.5 28145.5
45002.1 32781.7 35764.8
45813.5 35739.5 36066.5
35819.4 49340.4 40586.4
36408.5 49104.5 43738.5
29335.5 25300.5 33885.3
32200.5 23117.4 33591.5
37169.1 49336 28018.2
39378.5 48857.5 30126.5
22378.8 42810.8 35974.5
23538.4 45392.5 37303.5
33359.2 21035.8 27024.1
33191.5 19652.4 23691.4
43633.1 45719.7 26793.5
42348.5 47124.5 27898.5
21024.9 40453.7 31512.7
20073.4 37224.5 29383.5
22315.8 32240.4 31120.8
21806.4 34749.5 34085.5
32084.3 22057.3 28772.5
34675.5 20394.4 29630.5
34496.7 49726 26939.6
34923.5 49599.5 29383.5
44061.8 30407.7 34016
43833.5 30542.5 36560.5
28905.4 28777.2 38794.4
29230.5 26829.5 37055.5
43778.6 46070.4 28923.6
42348.5 47619.5 30373.5
35736.8 49346.9 40684.8
33438.5 50589.5 41015.5
30322.7 28721.2 39823.5
32200.5 26087.5 38540.5
29445.5 49425.4 28539.5
28488.5 49599.5 30373.5
42004.2 31432.3 40637.9
42348.5 30047.5 38540.5
27863.2 20640 16506.9
29973.5 18662.4 16760.4
45490 42684.6 27795.3
46061.5 41927.5 29878.5
42260.7 30088.8 38659.5
42348.5 28562.5 36560.5
26878.7 37129.8 43913.5
27745.5 38462.5 46955.5
24572.9 47252.1 27373.4
22053.4 46629.5 26166.5
24082.4 42523.1 39007.5
24776.4 44649.5 39530.5
28876.6 36167 46968.8
29230.5 37719.5 48688.5
20865.3 44511.5 26864.4
20073.4 44154.5 24681.4
28554.2 49754 38672.2
28241.5 48857.5 40768.5
41460.1 47687.1 18419.5
43091.5 45639.5 18493.4
19964.5 43915.1 26721.7
19330.4 41184.5 28393.5
26936.9 46791.5 40623.8
27745.5 47372.5 42253.5
35738 49611.6 21079.7
37398.5 49352.5 23196.4
46285.1 36612.6 21469.8
46061.5 34254.5 23196.4
22839.2 31869.4 32478.3
24033.4 31532.5 34581.5
39543.4 48300.5 21483
39625.5 48362.5 23691.4
19492.4 41719.2 27701.9
19083.4 38957.5 27155.5
42389.7 33340.6 42187.8
41110.5 31532.5 42995.5
26684.7 47774.2 19987.6
27993.5 47867.5 21958.4
26301.8 48793.5 35039.5
28241.5 50094.5 34085.5
23365 27363.6 15603.3
23291.4 25592.5 18493.4
42709.9 44170 16305.7
44081.5 42174.5 17256.4
24325.8 48283.6 30587.7
22300.4 46877.5 32106.5
41350.8 30439.3 40488.2
39873.5 28809.5 40025.5
24176.7 46971.8 16222.3
24776.4 46629.5 18988.4
19675.6 37941.4 24272.3
19330.4 35492.5 22948.4
21804.5 30498.7 26688.7
23043.4 28067.5 25918.5
39430.1 48449.6 23337.6
38388.5 49104.5 25423.5
31378 49940.4 32372.4
30963.5 50342.5 34581.5
41948.3 25287.3 31520.7
41110.5 24602.4 32600.5
20696.8 42837.2 20856.8
20073.4 43164.5 22453.4
45642.6 34054 30652.6
46308.5 33759.5 33343.5
23937.1 30076.5 31549.2
25023.5 29057.5 33591.5
21476.4 43965.4 16913.8
20568.4 42422.5 17503.4
36793 49275.8 35737.7
37893.5 48857.5 37798.5
40864.1 20898.4 25745.1
39130.5 19404.4 24433.4
33972.7 49795.5 27323.2
32200.5 49599.5 28145.5
39443.4 48176 36539.8
39873.5 47867.5 38540.5
26002.8 23173.3 19236.7
26261.5 23612.4 21711.4
32793.8 49663.2 27982.2
32448.5 49599.5 29630.5
45196.2 38726.3 40792.7
44823.5 37719.5 42253.5
31514.5 26834.6 38661
31458.5 25592.5 36560.5
19087.2 39091.9 20952.5
19083.4 37967.5 19235.4
43786.7 27083.9 30115.6
43585.5 24849.4 29383.5
21763.8 44838.3 22898.7
22053.4 44649.5 21215.4
21107.8 31669.3 24446.7
20568.4 31037.5 22453.4
27217.1 45121.4 42319.6
25765.5 42669.5 42995.5
45787.7 38813.3 20908.3
46555.5 38462.5 22700.4
43230.2 21150.9 20905.5
43585.5 20889.4 19483.4
31407.4 23501.4 33314.2
32448.5 21879.4 31858.5
45257.8 32341.1 12039.3
45813.5 31532.5 10573.5
23549.3 35603.9 36677.5
23291.4 33759.5 36560.5
27600.8 47839.5 21367.2
26756.5 47619.5 22948.4
29141.7 50032.1 39285.9
30715.5 50589.5 39530.5
29842.8 28888.2 39518.8
29973.5 29552.5 41758.5
32633.5 49635 29282
33685.5 49847.5 31363.5
44710.6 39844 42745.6
43833.5 40937.5 44480.5
[...]
CELL_DATA 1731
SCALARS radius float
LOOKUP_TABLE default
2.122e-314
100
100
100
72.0123
72.0123
66.9452
66.9452
57.8555
57.8555
48.2088
48.2088
66.9452
66.9452
55.7829
55.7829
55.7829
55.7829
48.2088
48.2088
51.8578
51.8578
48.2088
48.2088
57.8555
57.8555
55.7829
55.7829
50
50
43.2111
43.2111
41.6631
41.6631
51.8578
51.8578
89.6332
89.6332
51.8578
51.8578
40.1706
40.1706
80.3411
80.3411
55.7829
55.7829
41.6631
41.6631
40.1706
40.1706
53.7845
53.7845
36.0062
36.0062
46.4818
46.4818
50
50
50
50
69.4326
69.4326
48.2088
48.2088
48.2088
48.2088
43.2111
43.2111
46.4818
46.4818
48.2088
48.2088
37.344
37.344
51.8578
51.8578
43.2111
43.2111
34.7163
34.7163
27.8914
27.8914
40.1706
40.1706
36.0062
36.0062
30.0026
30.0026
23.2409
23.2409
44.8166
44.8166
33.4726
33.4726
25.9289
25.9289
25.9289
25.9289
21.6055
21.6055
19.3657
19.3657
43.2111
43.2111
40.1706
40.1706
25
25
32.2735
32.2735
22.4083
22.4083
18.672
18.672
16.7363
16.7363
30.0026
30.0026
40.1706
40.1706
32.2735
32.2735
26.8923
26.8923
37.344
37.344
27.8914
27.8914
24.1044
24.1044
19.3657
19.3657
18.672
18.672
21.6055
21.6055
16.7363
16.7363
20.8316
20.8316
15.5587
15.5587
12.9644
12.9644
12.0522
12.0522
32.2735
32.2735
20.8316
20.8316
26.8923
26.8923
19.3657
19.3657
25.9289
25.9289
22.4083
22.4083
20.0853
20.0853
16.7363
16.7363
22.4083
22.4083
18.672
18.672
17.3581
17.3581
13.9457
13.9457
13.9457
13.9457
16.7363
16.7363
43.2111
43.2111
31.1173
31.1173
20.0853
20.0853
22.4083
22.4083
19.3657
19.3657
10.4158
10.4158
12.5
12.5
17.3581
17.3581
33.4726
33.4726
28.9278
28.9278
24.1044
24.1044
18.672
18.672
16.1367
16.1367
12.0522
12.0522
12.0522
12.0522
34.7163
34.7163
23.2409
23.2409
18.672
18.672
17.3581
17.3581
16.1367
16.1367
36.0062
36.0062
32.2735
32.2735
25
25
18.0031
18.0031
19.3657
19.3657
28.9278
28.9278
26.8923
26.8923
17.3581
17.3581
16.7363
16.7363
30.0026
30.0026
23.2409
23.2409
16.7363
16.7363
20.8316
20.8316
12.9644
12.9644
38.7315
38.7315
25.9289
25.9289
24.1044
24.1044
13.4461
13.4461
28.9278
28.9278
21.6055
21.6055
19.3657
19.3657
12.5
12.5
30.0026
30.0026
15.0013
15.0013
18.672
18.672
11.2042
11.2042
36.0062
36.0062
16.7363
16.7363
23.2409
23.2409
11.2042
11.2042
33.4726
33.4726
14.4639
14.4639
9.00154
9.00154
34.7163
34.7163
21.6055
21.6055
15.0013
15.0013
9.68287
9.68287
34.7163
34.7163
17.3581
17.3581
10.8028
10.8028
32.2735
32.2735
22.4083
22.4083
10.4158
10.4158
33.4726
33.4726
16.1367
16.1367
11.6204
11.6204
32.2735
32.2735
15.5587
15.5587
13.9457
13.9457
31.1173
31.1173
15.0013
15.0013
11.2042
11.2042
25.9289
25.9289
18.0031
18.0031
48.2088
48.2088
25
25
20.0853
20.0853
44.8166
44.8166
25.9289
25.9289
14.4639
14.4639
48.2088
48.2088
23.2409
23.2409
17.3581
17.3581
33.4726
33.4726
21.6055
21.6055
14.4639
14.4639
43.2111
43.2111
26.8923
26.8923
15.0013
15.0013
32.2735
32.2735
21.6055
21.6055
17.3581
17.3581
46.4818
46.4818
30.0026
30.0026
17.3581
17.3581
24.1044
24.1044
22.4083
22.4083
13.4461
13.4461
27.8914
27.8914
25.9289
25.9289
15.5587
15.5587
33.4726
33.4726
24.1044
24.1044
12.5
12.5
32.2735
32.2735
18.0031
18.0031
9.68287
9.68287
21.6055
21.6055
18.672
18.672
26.8923
26.8923
18.0031
18.0031
18.672
18.672
28.9278
28.9278
14.4639
14.4639
10.4158
10.4158
24.1044
24.1044
16.1367
16.1367
30.0026
30.0026
17.3581
17.3581
10.8028
10.8028
31.1173
31.1173
17.3581
17.3581
38.7315
38.7315
25
25
15.5587
15.5587
34.7163
34.7163
15.5587
15.5587
50
50
21.6055
21.6055
13.4461
13.4461
27.8914
27.8914
16.7363
16.7363
43.2111
43.2111
22.4083
22.4083
15.5587
15.5587
38.7315
38.7315
13.9457
13.9457
12.5
12.5
30.0026
30.0026
13.9457
13.9457
27.8914
27.8914
16.1367
16.1367
48.2088
48.2088
20.0853
20.0853
15.0013
15.0013
23.2409
23.2409
16.7363
16.7363
27.8914
27.8914
13.9457
13.9457
15.5587
15.5587
27.8914
27.8914
22.4083
22.4083
22.4083
22.4083
16.7363
16.7363
25
25
12.9644
12.9644
31.1173
31.1173
17.3581
17.3581
28.9278
28.9278
18.0031
18.0031
31.1173
31.1173
19.3657
19.3657
30.0026
30.0026
14.4639
14.4639
24.1044
24.1044
16.1367
16.1367
30.0026
30.0026
12.5
12.5
28.9278
28.9278
18.672
18.672
24.1044
24.1044
12.9644
12.9644
30.0026
30.0026
18.0031
18.0031
31.1173
31.1173
15.5587
15.5587
19.3657
19.3657
11.6204
11.6204
27.8914
27.8914
15.0013
15.0013
31.1173
31.1173
15.0013
15.0013
23.2409
23.2409
9.68287
9.68287
20.0853
20.0853
10.0426
10.0426
20.8316
20.8316
11.6204
11.6204
28.9278
28.9278
11.2042
11.2042
18.672
18.672
11.2042
11.2042
20.8316
20.8316
13.4461
13.4461
21.6055
21.6055
11.6204
11.6204
25.9289
25.9289
9.00154
9.00154
25
25
12.9644
12.9644
25
25
10.8028
10.8028
20.8316
20.8316
10.8028
10.8028
18.672
18.672
11.6204
11.6204
19.3657
19.3657
11.6204
11.6204
24.1044
24.1044
11.6204
11.6204
25.9289
25.9289
25
25
27.8914
27.8914
20.0853
20.0853
14.4639
14.4639
62.2346
62.2346
18.0031
18.0031
44.8166
44.8166
23.2409
23.2409
62.2346
62.2346
28.9278
28.9278
46.4818
46.4818
20.8316
20.8316
44.8166
44.8166
22.4083
22.4083
86.4222
86.4222
20.8316
20.8316
46.4818
46.4818
17.3581
17.3581
41.6631
41.6631
25
25
36.0062
36.0062
22.4083
22.4083
41.6631
41.6631
13.4461
13.4461
43.2111
43.2111
16.7363
16.7363
41.6631
41.6631
21.6055
21.6055
41.6631
41.6631
23.2409
23.2409
32.2735
32.2735
17.3581
17.3581
44.8166
44.8166
14.4639
14.4639
28.9278
28.9278
16.7363
16.7363
40.1706
40.1706
16.7363
16.7363
38.7315
38.7315
18.0031
18.0031
26.8923
26.8923
15.0013
15.0013
32.2735
32.2735
16.1367
16.1367
34.7163
34.7163
18.0031
18.0031
22.4083
22.4083
14.4639
14.4639
31.1173
31.1173
20.0853
20.0853
25
25
16.7363
16.7363
25
25
16.7363
16.7363
28.9278
28.9278
18.0031
18.0031
24.1044
24.1044
13.9457
13.9457
25.9289
25.9289
17.3581
17.3581
27.8914
27.8914
12.0522
12.0522
20.8316
20.8316
18.0031
18.0031
21.6055
21.6055
53.7845
53.7845
22.4083
22.4083
50
50
20.8316
20.8316
40.1706
40.1706
17.3581
17.3581
26.8923
26.8923
16.1367
16.1367
32.2735
32.2735
17.3581
17.3581
28.9278
28.9278
8.67907
8.67907
25
25
18.672
18.672
23.2409
23.2409
41.6631
41.6631
16.1367
16.1367
38.7315
38.7315
21.6055
21.6055
19.3657
19.3657
13.4461
13.4461
20.8316
20.8316
48.2088
48.2088
15.0013
15.0013
34.7163
34.7163
27.8914
27.8914
26.8923
26.8923
15.0013
15.0013
21.6055
21.6055
19.3657
19.3657
26.8923
26.8923
12.5
12.5
23.2409
23.2409
46.4818
46.4818
20.0853
20.0853
31.1173
31.1173
14.4639
14.4639
33.4726
33.4726
19.3657
19.3657
24.1044
24.1044
50
50
17.3581
17.3581
37.344
37.344
19.3657
19.3657
25
25
14.4639
14.4639
18.0031
18.0031
40.1706
40.1706
16.1367
16.1367
27.8914
27.8914
10.8028
10.8028
23.2409
23.2409
36.0062
36.0062
14.4639
14.4639
30.0026
30.0026
11.6204
11.6204
20.8316
20.8316
38.7315
38.7315
18.672
18.672
25.9289
25.9289
14.4639
14.4639
20.8316
20.8316
33.4726
33.4726
12.5
12.5
20.0853
20.0853
34.7163
34.7163
17.3581
17.3581
22.4083
22.4083
30.0026
30.0026
13.9457
13.9457
23.2409
23.2409
33.4726
33.4726
11.6204
11.6204
22.4083
22.4083
23.2409
23.2409
12.5
12.5
18.0031
18.0031
33.4726
33.4726
8.67907
8.67907
16.1367
16.1367
34.7163
34.7163
12.5
12.5
16.1367
16.1367
32.2735
32.2735
12.0522
12.0522
18.0031
18.0031
30.0026
30.0026
14.4639
14.4639
18.0031
18.0031
21.6055
21.6055
10.4158
10.4158
16.7363
16.7363
21.6055
21.6055
10.0426
10.0426
16.7363
16.7363
27.8914
27.8914
10.4158
10.4158
20.0853
20.0853
26.8923
26.8923
11.2042
11.2042
20.0853
20.0853
23.2409
23.2409
16.1367
16.1367
14.4639
14.4639
26.8923
26.8923
60.0051
60.0051
16.1367
16.1367
22.4083
22.4083
44.8166
44.8166
15.5587
15.5587
28.9278
28.9278
64.547
64.547
13.9457
13.9457
25.9289
25.9289
40.1706
40.1706
18.0031
18.0031
25
25
46.4818
46.4818
18.0031
18.0031
21.6055
21.6055
37.344
37.344
19.3657
19.3657
24.1044
24.1044
44.8166
44.8166
16.1367
16.1367
22.4083
22.4083
41.6631
41.6631
11.6204
11.6204
18.0031
18.0031
23.2409
23.2409
53.7845
53.7845
18.0031
18.0031
31.1173
31.1173
46.4818
46.4818
21.6055
21.6055
26.8923
26.8923
27.8914
27.8914
15.0013
15.0013
22.4083
22.4083
36.0062
36.0062
16.7363
16.7363
15.5587
15.5587
33.4726
33.4726
9.68287
9.68287
15.5587
15.5587
25.9289
25.9289
30.0026
30.0026
12.9644
12.9644
16.1367
16.1367
25
25
51.8578
51.8578
17.3581
17.3581
31.1173
31.1173
43.2111
43.2111
17.3581
17.3581
15.5587
15.5587
25
25
28.9278
28.9278
10.0426
10.0426
15.0013
15.0013
25.9289
25.9289
28.9278
28.9278
11.6204
11.6204
20.0853
20.0853
19.3657
19.3657
20.8316
20.8316
32.2735
32.2735
13.9457
13.9457
15.5587
15.5587
25
25
24.1044
24.1044
10.0426
10.0426
13.9457
13.9457
16.1367
16.1367
31.1173
31.1173
12.0522
12.0522
15.0013
15.0013
16.1367
16.1367
20.8316
20.8316
21.6055
21.6055
25.9289
25.9289
10.0426
10.0426
18.0031
18.0031
17.3581
17.3581
20.8316
20.8316
20.0853
20.0853
13.9457
13.9457
20.8316
20.8316
22.4083
22.4083
23.2409
23.2409
13.9457
13.9457
19.3657
19.3657
21.6055
21.6055
16.7363
16.7363
18.672
18.672
18.0031
18.0031
15.0013
15.0013
17.3581
17.3581
20.8316
20.8316
14.4639
14.4639
16.7363
16.7363
18.0031
18.0031
15.0013
15.0013
15.5587
15.5587
16.1367
16.1367
15.5587
15.5587
17.3581
17.3581
14.4639
14.4639
15.5587
15.5587
16.7363
16.7363
18.672
18.672
13.9457
13.9457
18.0031
18.0031
15.0013
15.0013
12.0522
12.0522
16.1367
16.1367
12.0522
12.0522
14.4639
14.4639
12.0522
12.0522
13.4461
13.4461
9.33599
9.33599
10.8028
10.8028
10.0426
10.0426
11.6204
11.6204
12.0522
12.0522
11.2042
11.2042
9.33599
9.33599
10.8028
10.8028
15.5587
15.5587
25
25
64.547
64.547
60.0051
60.0051
50
50
92.9635
92.9635
46.4818
46.4818
83.3262
83.3262
77.463
77.463
74.6879
74.6879
66.9452
66.9452
38.7315
38.7315
69.4326
69.4326
44.8166
44.8166
37.344
37.344
46.4818
46.4818
38.7315
38.7315
32.2735
32.2735
41.6631
41.6631
30.0026
30.0026
37.344
37.344
37.344
37.344
40.1706
40.1706
36.0062
36.0062
37.344
37.344
36.0062
36.0062
31.1173
31.1173
34.7163
34.7163
31.1173
31.1173
33.4726
33.4726
28.9278
28.9278
33.4726
33.4726
32.2735
32.2735
31.1173
31.1173
27.8914
27.8914
31.1173
31.1173
32.2735
32.2735
33.4726
33.4726
26.8923
26.8923
21.6055
21.6055
23.2409
23.2409
24.1044
24.1044
17.3581
17.3581
11.6204
11.6204
53.7845
53.7845
33.4726
33.4726
20.0853
20.0853
27.8914
27.8914
19.3657
19.3657
53.7845
53.7845
31.1173
31.1173
20.0853
20.0853
18.672
18.672
96.4176
96.4176
16.7363
16.7363
31.1173
31.1173
13.9457
13.9457
15.5587
15.5587
34.7163
34.7163
12.9644
12.9644
7.00259e-312
7.00259e-312
7.00259e-312
7.00259e-312
7.00259e-312
7.00259e-312
7.00259e-312
7.00259e-312
7.00259e-312
7.00259e-312
7.00259e-312
7.00259e-312
7.00259e-312
7.00259e-312
7.00259e-312
7.00259e-312
7.00259e-312
7.00259e-312
7.00259e-312
7.00259e-312
7.00259e-312
7.00259e-312
7.00259e-312
7.00259e-312
7.00259e-312
7.00259e-312
7.00259e-312
7.00259e-312
7.00259e-312
7.00259e-312
7.00259e-312
7.00259e-312
7.00259e-312
7.00259e-312
7.00259e-312
7.00259e-312
7.00259e-312
7.00259e-312
7.00259e-312
7.00259e-312
7.00259e-312
7.00259e-312
7.00259e-312
7.00259e-312
7.00259e-312
7.00259e-312
7.00259e-312
7.00259e-312
7.00259e-312
7.00259e-312
7.00259e-312
7.00259e-312
7.00259e-312
7.00259e-312
7.00259e-312
7.00259e-312
7.00259e-312
7.00259e-312
7.00259e-312
7.00259e-312
7.00259e-312
7.00259e-312
7.00259e-312
7.00259e-312
7.00259e-312
7.00259e-312
7.00259e-312
7.00259e-312
7.00259e-312
7.00259e-312
7.00259e-312
7.00259e-312
7.00259e-312
7.00259e-312
7.00259e-312
7.00259e-312
7.00259e-312
7.00259e-312
7.00259e-312
7.00259e-312
7.00259e-312
7.00259e-312
7.00259e-312
7.00259e-312
7.00259e-312
7.00259e-312
7.00259e-312
7.00259e-312
7.00259e-312
7.00259e-312
7.00259e-312
7.00259e-312
7.00259e-312
7.00259e-312
7.00259e-312
7.00259e-312
7.00259e-312
7.00259e-312
7.00259e-312
7.00259e-312
7.00259e-312
7.00259e-312
7.00259e-312
7.00259e-312
7.00259e-312
7.00259e-312
7.00259e-312
7.00259e-312
7.00259e-312
7.00259e-312
7.00259e-312
7.00259e-312
7.00259e-312
7.00259e-312
7.00259e-312
7.00259e-312
7.00259e-312
7.00259e-312
7.00259e-312
7.00259e-312
7.00259e-312
7.00259e-312
7.00259e-312
7.00259e-312
7.00259e-312
7.00259e-312
7.00259e-312
7.00259e-312
7.00259e-312
7.00259e-312
7.00259e-312
7.00259e-312
7.00259e-312
7.00259e-312
7.00259e-312
7.00259e-312
7.00259e-312
7.00259e-312
7.00259e-312
7.00259e-312
7.00259e-312
7.00259e-312
7.00259e-312
7.00259e-312
7.00259e-312
7.00259e-312
7.00259e-312
7.00259e-312
7.00259e-312
7.00259e-312
7.00259e-312
7.00259e-312
7.00259e-312
7.00259e-312
7.00259e-312
7.00259e-312
7.00259e-312
7.00259e-312
7.00259e-312
7.00259e-312
7.00259e-312
7.00259e-312
7.00259e-312
7.00259e-312
7.00259e-312
7.00259e-312
7.00259e-312
7.00259e-312
7.00259e-312
7.00259e-312
7.00259e-312
7.00259e-312
7.00259e-312
7.00259e-312
7.00259e-312
7.00259e-312
7.00259e-312
7.00259e-312
7.00259e-312
7.00259e-312
7.00259e-312
7.00259e-312
7.00259e-312
7.00259e-312
7.00259e-312
7.00259e-312
7.00259e-312
7.00259e-312
7.00259e-312
7.00259e-312
7.00259e-312
7.00259e-312
7.00259e-312
7.00259e-312
7.00259e-312
7.00259e-312
7.00259e-312
7.00259e-312
7.00259e-312
7.00259e-312
7.00259e-312
7.00259e-312
7.00259e-312
7.00259e-312
7.00259e-312
7.00259e-312
7.00259e-312
7.00259e-312
7.00259e-312
7.00259e-312
7.00259e-312
7.00259e-312
7.00259e-312
7.00259e-312
7.00259e-312
7.00259e-312
7.00259e-312
7.00259e-312
7.00259e-312
7.00259e-312
7.00259e-312
7.00259e-312
7.00259e-312
7.00259e-312
7.00259e-312
7.00259e-312
7.00259e-312
7.00259e-312
7.00259e-312
7.00259e-312
7.00259e-312
7.00259e-312
7.00259e-312
7.00259e-312
7.00259e-312
7.00259e-312
7.00259e-312
7.00259e-312
7.00259e-312
7.00259e-312
7.00259e-312
7.00259e-312
7.00259e-312
7.00259e-312
7.00259e-312
7.00259e-312
7.00259e-312
7.00259e-312
7.00259e-312
7.00259e-312
7.00259e-312
7.00259e-312
7.00259e-312
7.00259e-312
7.00259e-312
7.00259e-312
7.00259e-312
7.00259e-312
7.00259e-312
7.00259e-312
7.00259e-312
7.00259e-312
7.00259e-312
7.00259e-312
7.00259e-312
7.00259e-312
7.00259e-312
7.00259e-312
7.00259e-312
7.00259e-312
7.00259e-312
7.00259e-312
7.00259e-312
7.00259e-312
7.00259e-312
7.00259e-312
7.00259e-312
7.00259e-312
7.00259e-312
7.00259e-312
7.00259e-312
7.00259e-312
7.00259e-312
7.00259e-312
7.00259e-312
7.00259e-312
7.00259e-312
7.00259e-312
7.00259e-312
7.00259e-312
7.00259e-312
7.00259e-312
7.00259e-312
7.00259e-312
7.00259e-312
7.00259e-312
7.00259e-312
7.00259e-312
7.00259e-312
7.00259e-312
7.00259e-312
7.00259e-312
7.00259e-312
7.00259e-312
7.00259e-312
7.00259e-312
7.00259e-312
7.00259e-312
7.00259e-312
7.00259e-312
7.00259e-312
7.00259e-312
7.00259e-312
7.00259e-312
7.00259e-312
7.00259e-312
7.00259e-312
7.00259e-312
7.00259e-312
7.00259e-312
7.00259e-312
7.00259e-312
7.00259e-312
7.00259e-312
7.00259e-312
7.00259e-312
7.00259e-312
7.00259e-312
7.00259e-312
7.00259e-312
7.00259e-312
7.00259e-312
7.00259e-312
7.00259e-312
7.00259e-312
7.00259e-312
7.00259e-312
7.00259e-312
7.00259e-312
7.00259e-312
7.00259e-312
7.00259e-312
7.00259e-312
7.00259e-312
7.00259e-312
7.00259e-312
7.00259e-312
7.00259e-312
7.00259e-312
7.00259e-312
7.00259e-312
7.00259e-312
7.00259e-312
7.00259e-312
7.00259e-312
7.00259e-312
7.00259e-312
7.00259e-312
7.00259e-312
7.00259e-312
7.00259e-312
7.00259e-312
7.00259e-312
7.00259e-312
7.00259e-312
7.00259e-312
7.00259e-312
7.00259e-312
7.00259e-312
7.00259e-312
7.00259e-312
7.00259e-312
7.00259e-312
7.00259e-312
7.00259e-312
7.00259e-312
7.00259e-312
7.00259e-312
7.00259e-312
7.00259e-312
7.00259e-312
7.00259e-312
7.00259e-312
7.00259e-312
7.00259e-312
7.00259e-312
7.00259e-312
7.00259e-312
7.00259e-312
7.00259e-312
7.00259e-312
7.00259e-312
7.00259e-312
7.00259e-312
7.00259e-312
7.00259e-312
7.00259e-312
7.00259e-312
7.00259e-312
7.00259e-312
7.00259e-312
7.00259e-312
7.00259e-312
7.00259e-312
7.00259e-312
7.00259e-312
7.00259e-312
7.00259e-312
7.00259e-312
7.00259e-312
7.00259e-312
7.00259e-312
7.00259e-312
7.00259e-312
7.00259e-312
7.00259e-312
7.00259e-312
7.00259e-312
7.00259e-312
7.00259e-312
7.00259e-312
7.00259e-312
7.00259e-312
7.00259e-312
7.00259e-312
7.00259e-312
7.00259e-312
7.00259e-312
7.00259e-312
