# vtk DataFile Version 3.0
Tree
ASCII
DATASET POLYDATA
POINTS 1732 float
40693.5 56318.5 68.45
40693.5 56318.5 2568.45
34443.5 55443.5 6443.45
33438.5 52817.5 12801.5
33740 53605.3 10894.1
34181.5 52569.5 14038.5
33673.2 52839.9 12864.5
29726.5 49847.5 17256.4
30910.5 50745.2 15938.8
25270.5 48857.5 14038.5
32078.6 51464.2 15012.9
33191.5 50094.5 18741.4
32813.1 50560.2 17473.7
38636.5 49104.5 18245.4
28944.6 50283 14917.2
27745.5 51084.5 12306.5
33886.7 52726.3 13357.6
37151.5 52322.5 13543.5
36842.2 49917 17444.1
38883.5 50342.5 16265.5
38263.6 49318.8 17930.4
40615.5 48857.5 17008.4
33791.6 54502.2 8050.86
32193.5 53193.4 8693.45
30081.7 50116.8 16861.1
30963.5 49352.5 19235.4
32472.8 53546.5 8783.55
30193.5 52443.4 10943.5
34339.6 50301.3 17656.8
35913.5 49847.5 20226.4
29833.1 49928.3 17137.8
26756.5 48609.5 16760.4
33004.9 50135 18590.9
32696.5 49352.5 20473.4
39627.7 49051.2 17395.7
41358.5 47372.5 18988.4
34036 54021.7 9399.16
35666.5 53312.5 10573.5
35144.8 52382.5 13703.8
35913.5 51579.5 14780.5
26051.6 48909.2 14470.5
24528.4 47372.5 15028.5
38520.1 49191.3 18221.8
39130.5 49104.5 19730.4
28137.2 49104.9 17228.9
27251.5 48362.5 18245.4
39114.6 49027.5 19332.2
40368.5 48362.5 20226.4
32475.1 51982.3 14038.6
30468.5 51332.5 14038.5
34101.1 52526.8 13980.8
34428.5 51827.5 15523.5
24689.9 47401.7 15112.7
20568.4 42422.5 17503.4
30634.7 49443.5 18993.9
30468.5 48857.5 20968.4
21307.5 42548.8 17309.6
19083.4 36977.5 19483.4
40770 47943.3 18446.9
42843.5 44154.5 16265.5
19806.6 37462.6 19344.9
19826.4 32522.5 21463.4
20167.4 33267.2 21411.1
22300.4 28314.5 25175.5
39992.3 48562 19958.1
39625.5 48857.5 25175.5
20617.1 40209.1 18245.8
18588.4 39947.5 24681.4
19928.7 32745.9 21447.7
22300.4 27819.5 17256.4
22319.3 27984.3 17961.3
25270.5 22622.4 15523.5
41229 47528 19003
43585.5 45639.5 22948.4
43263.9 45596.6 22718.1
45813.5 42422.5 28145.5
22306.1 27869 17467.9
23291.4 28809.5 12306.5
22536.2 28694 24579.5
26013.5 24107.4 26908.5
42335.8 44336.6 16285.3
43338.5 39699.5 13295.5
39095.6 48858 23938.5
34923.5 49599.5 29383.5
36487.3 49323.8 27995
37893.5 49104.5 34828.5
37011 49221.3 34060
35666.5 49352.5 40768.5
22371.2 28428.3 24996.7
23291.4 29552.5 30868.5
26079.3 24992.6 26793.1
31211.5 21879.4 29630.5
27314.1 48465.2 18226.9
24033.4 46382.5 22700.4
35186.3 49459.5 28782.9
28736.5 49352.5 29630.5
45267.3 42920 27957
46308.5 40937.5 33838.5
35712.8 49453.5 36905.5
30715.5 50589.5 39530.5
29991.3 22662.7 28596.6
34675.5 20394.4 26413.5
25132.1 23515.7 16354.9
29973.5 18662.4 16760.4
42647.6 45992.7 21291.6
45070.5 41184.5 21711.4
24642 46979.4 22289.6
22053.4 46629.5 28393.5
37723.5 49019.3 34432.9
43091.5 46877.5 35818.5
45939 40975.2 33430.3
45813.5 38709.5 39036.5
22761.4 29886.6 29263.8
21806.4 34749.5 34085.5
45575.2 39723.8 38060.7
43833.5 40937.5 44480.5
22321.1 33346.3 33057.9
25270.5 34502.5 39036.5
23357.8 29587.8 30663.9
27003.5 28314.5 36313.5
30845.4 22114.4 29320.3
31706.5 24602.4 35323.5
30325.4 49051.3 20752.7
28983.5 48609.5 24928.4
43093.7 41062.9 14612
45070.5 34997.5 16513.4
44477.5 36817.1 15943
44576.5 31532.5 11563.5
45649.6 42571.8 28089
46555.5 36234.5 29878.5
22648.4 46238.9 27438.4
21311.4 43164.5 33343.5
45742 39013.8 38743.8
45318.5 33264.5 37055.5
44819.7 33973.1 37449.6
42348.5 28562.5 36560.5
45428.4 37300 38303.8
42348.5 33264.5 42995.5
24543.5 34848.6 37942
25765.5 39204.5 42748.5
31590.7 24695.6 34988
32200.5 28067.5 41015.5
25201.3 34486.7 38922.3
28488.5 32274.5 43738.5
43899.2 41135.6 43162
40943.4 44693.4 47443.4
39622.7 48753.7 24880
42348.5 47372.5 27403.5
44764.5 41371.1 21812
46555.5 36234.5 22700.4
30458.7 49524.3 29991.5
26756.5 50342.5 34085.5
27617.4 49775.1 33569.2
25765.5 47867.5 38293.5
43087.5 29896.6 36484.7
42843.5 25592.5 31858.5
25574.3 38756.1 41485.3
26756.5 44402.5 42995.5
25708.1 39070 42369.5
27993.5 37224.5 46955.5
24216 46561.6 22577.2
21063.4 43907.5 21711.4
20049.7 38286.6 19015.2
20568.4 33759.5 15771.5
19344 39636.9 23602.1
20073.4 37224.5 29383.5
26228.7 48210.3 36706.2
23785.4 43907.5 37551.5
42853.6 26066.3 31998.7
42595.5 22622.4 26908.5
43853.2 40996.9 44084.9
41606.5 37719.5 47946.5
32888.3 49575.5 20144.8
34181.5 49352.5 23443.4
40852.4 47729.2 34737.6
43585.5 46382.5 32353.5
46199.8 36577.5 29518.5
46061.5 32027.5 30126.5
42942 23516.1 27314.4
43833.5 21384.4 20721.4
43154.7 21285.6 22198.5
41853.5 17919.4 18493.4
23740.9 27435.5 25332.1
26261.5 23612.4 21711.4
28115.8 37186.8 46364.7
30715.5 35244.5 49431.5
43508.9 39789.2 15011.3
44576.5 39204.5 18741.4
36209.2 49361.3 30935.9
33191.5 49847.5 33838.5
42419.8 47133 35494.2
42843.5 45639.5 40025.5
25904.5 47970.3 37817.3
28241.5 48114.5 41758.5
34611.3 20752.3 26470.4
39130.5 19404.4 24433.4
23200.8 45688.7 22113.9
22548.4 44897.5 19483.4
18815.1 39854.3 24357.6
19578.4 43659.5 26660.5
21637.7 43474.9 31714.6
21063.4 39452.5 33096.5
43280.2 34368.1 41297.5
41358.5 30294.5 40521.5
35783.9 49174.4 40564.5
36160.5 48362.5 45223.5
28170 49627.9 32488.3
23943.5 48693.4 32693.5
28807.7 48739.8 24060.3
26261.5 48609.5 26660.5
45022.8 35342.8 16524.1
46803.5 32522.5 18988.4
37842.5 49078.9 34709.8
39378.5 48362.5 38788.5
23509.1 25946.9 16780.5
23785.4 24602.4 13543.5
33940.3 49406 23344.8
34428.5 49352.5 25918.5
42890 46954.1 35721.2
45070.5 44154.5 35323.5
45940.7 32408 29815.4
45318.5 28314.5 29383.5
42325.5 33502.7 42815.6
40121.5 32522.5 45470.5
28930.8 48648.6 24668
31211.5 49104.5 26166.5
46448.8 36337.4 29770.5
46308.5 34254.5 32353.5
42896.3 42499.5 44405.2
41606.5 46134.5 43491.5
23178.9 29677.4 30243.9
26756.5 26087.5 31858.5
44374.5 42523.5 22073.2
46061.5 40689.5 24681.4
19683.2 37891.4 25770.7
20073.4 34254.5 26908.5
42846.5 25734.6 31900.6
40615.5 22869.4 30868.5
45365.7 39703.6 21954.2
46061.5 38462.5 20226.4
28856.6 49596.8 31739.2
29973.5 50589.5 35323.5
25003.9 34595.3 38628.2
26508.5 31037.5 38540.5
44131.8 44948.8 26097.8
44328.5 45392.5 28145.5
22292.5 31686.1 30464.3
21063.4 34254.5 30373.5
32264.1 21676.5 27997.2
34675.5 20394.4 29630.5
23686.9 46910.5 25500.3
24033.4 48114.5 27403.5
21540.8 42033.6 32592.9
22053.4 40937.5 35323.5
33813.3 21066.5 26989.5
33191.5 19652.4 23691.4
19580.2 42874.7 25865.5
21063.4 45392.5 25423.5
21907.3 41076.6 34579.9
22053.4 38462.5 35818.5
26045.9 40570 42229.4
27498.5 41679.5 45966.5
44094.3 45393.6 27718.6
43091.5 46382.5 29630.5
43088.4 45582.1 39423.2
44081.5 44154.5 41758.5
26344.9 31824.8 38841.5
28241.5 29799.5 40521.5
37850.4 49083.9 26339.1
39378.5 48857.5 30126.5
44283.3 32229.1 36679.5
44823.5 30542.5 34085.5
27658.5 24062.8 27736.7
28241.5 23859.4 30868.5
20824.2 40911 17964.9
20073.4 38709.5 16265.5
38802.1 48395.8 38433.2
38636.5 47867.5 41015.5
26962.7 28081.2 35302
29230.5 26829.5 37055.5
19868.5 40482.2 21027.7
19083.4 42422.5 22948.4
35706.4 49291.9 40699.1
33438.5 50589.5 41015.5
27438.4 37552.9 45163.5
28241.5 34749.5 45470.5
24153 47963.5 27282.1
25023.5 48857.5 29136.5
22952.9 34156.3 34763.1
22548.4 36234.5 35818.5
28323.1 32181.9 42721.2
30715.5 30047.5 44233.5
45160.4 32634.7 12029.1
46308.5 31284.5 10078.5
45044.9 39985.9 39808.1
44823.5 37719.5 42253.5
28528 32230.8 43604.5
29726.5 32027.5 45966.5
24483.8 48303.2 27986.8
23291.4 48114.5 29878.5
25352.6 46469.2 37566.9
25023.5 45144.5 39778.5
41517.8 46647 17869.8
43091.5 45639.5 18493.4
20511.6 35301.5 16361.2
21311.4 34749.5 12801.5
22009.6 39246.7 35446.9
23291.4 38957.5 38293.5
38979.1 48878 22138.6
37398.5 49352.5 23196.4
19069.2 40808.3 25069.9
19330.4 41184.5 28393.5
22310.2 32715.4 32072.3
24033.4 31532.5 34581.5
30418.2 49168.9 20225.1
27745.5 47867.5 21215.4
46035.3 40051.7 29487.5
46555.5 38709.5 31858.5
44620 38193.5 42045.7
43585.5 37224.5 44233.5
23005.1 45451.3 21324.7
24776.4 46629.5 18988.4
23474.6 47992.3 29679.7
22300.4 46877.5 32106.5
36275.8 48469 43116.1
38140.5 46629.5 44480.5
42691.2 44209.1 16271.4
43585.5 41679.5 17256.4
19905 35793.4 20351.3
19330.4 35492.5 22948.4
42076.8 32355.9 41290.2
40615.5 31284.5 42500.5
26410.8 47775.5 20956
26756.5 47619.5 22948.4
45829.9 40599.7 34819.4
46555.5 38214.5 35570.5
22995.3 39230.5 37620.8
24280.4 41679.5 40273.5
43256.5 39740.4 13528.8
43338.5 37719.5 12306.5
22402.6 28912.4 15199.8
21806.4 30789.5 13791.5
42337.6 38493 46541.5
41853.5 35987.5 46461.5
24102.8 46450.5 22653.6
22300.4 46134.5 23691.4
43836.6 45694.3 35888.7
44823.5 44154.5 37798.5
37461.4 20151.6 25871.8
39625.5 20147.4 26660.5
29347.8 49397.8 29641
28488.5 49104.5 27898.5
21738.7 41516.9 33665.9
22300.4 43164.5 35818.5
27601.2 30452.1 39787
28983.5 28562.5 38788.5
45738.1 42491.2 28119.5
46061.5 40442.5 26908.5
42437.8 32959.6 41292.4
43091.5 31284.5 39778.5
34313 49395.7 24635.6
36160.5 49599.5 25423.5
44729.8 31475.6 35097
45813.5 32027.5 33343.5
22633.4 28732 26502.6
24528.4 26829.5 29136.5
44900.9 35797.8 16490.4
45813.5 34997.5 18741.4
45083.1 28670 29300.9
44328.5 26334.5 28888.5
33635.8 49433.4 21341.6
35170.5 49104.5 21958.4
22496.1 46797.8 31695.6
21806.4 45144.5 33096.5
41258.6 30590.8 40644.1
39873.5 28809.5 40025.5
43735 44444.5 21901.4
45070.5 44154.5 22948.4
46255.7 38512 35437.2
45813.5 35739.5 36066.5
24905.5 36007.3 39184.3
25518.5 35492.5 41263.5
21590 44276.9 21518.3
20568.4 43164.5 20226.4
22152.5 42542.4 35205.5
22795.4 41927.5 37055.5
33033.6 21325.3 28663.7
33438.5 21879.4 30868.5
20212.9 43903.7 25424.1
20815.4 44649.5 23691.4
21145.3 31058.3 24073.7
21311.4 30294.5 26166.5
28180.2 29968.2 40398.8
29973.5 29552.5 41758.5
39467.6 48735.2 29707.3
40615.5 48362.5 31363.5
20743.5 31851 22595.4
21558.4 29304.5 22453.4
30321 23957.9 32760.5
29478.5 24849.4 34085.5
44807.4 34749.5 14747.6
45070.5 33017.5 15028.5
42742.6 31518.9 39965.1
42348.5 30047.5 38540.5
43682 45254.5 23836
44576.5 44402.5 24185.4
30962.3 50125.4 39018.6
29230.5 50094.5 39530.5
26568.9 47754.3 19454
25765.5 46877.5 19978.4
21170.2 40480.5 32788.6
19826.4 39204.5 31611.5
25306.8 36938.7 40595.9
25765.5 36977.5 42253.5
43164.3 46452 29303.2
42348.5 47619.5 30373.5
25021.5 45347.3 39058.2
24280.4 43659.5 39530.5
44029.2 43560.8 21980.4
[...]
CELL_DATA 1731
SCALARS radius float
LOOKUP_TABLE default
2.122e-314
100
100
100
74.6879
74.6879
72.0123
72.0123
55.7829
55.7829
60.0051
60.0051
53.7845
53.7845
50
50
69.4326
69.4326
46.4818
46.4818
44.8166
44.8166
92.9635
92.9635
51.8578
51.8578
89.6332
89.6332
51.8578
51.8578
50
50
51.8578
51.8578
41.6631
41.6631
83.3262
83.3262
66.9452
66.9452
48.2088
48.2088
43.2111
43.2111
48.2088
48.2088
41.6631
41.6631
64.547
64.547
66.9452
66.9452
43.2111
43.2111
50
50
34.7163
34.7163
38.7315
38.7315
25.9289
25.9289
21.6055
21.6055
40.1706
40.1706
28.9278
28.9278
20.8316
20.8316
20.0853
20.0853
37.344
37.344
32.2735
32.2735
19.3657
19.3657
17.3581
17.3581
36.0062
36.0062
34.7163
34.7163
27.8914
27.8914
20.8316
20.8316
16.7363
16.7363
15.5587
15.5587
46.4818
46.4818
26.8923
26.8923
26.8923
26.8923
20.0853
20.0853
14.4639
14.4639
16.7363
16.7363
34.7163
34.7163
36.0062
36.0062
20.0853
20.0853
24.1044
24.1044
13.4461
13.4461
21.6055
21.6055
10.8028
10.8028
12.0522
12.0522
13.4461
13.4461
44.8166
44.8166
33.4726
33.4726
25.9289
25.9289
25.9289
25.9289
30.0026
30.0026
20.8316
20.8316
18.672
18.672
20.0853
20.0853
8.36815
8.36815
10.8028
10.8028
7.50064
7.50064
19.3657
19.3657
33.4726
33.4726
27.8914
27.8914
23.2409
23.2409
18.672
18.672
16.1367
16.1367
7.50064
7.50064
7.23194
7.23194
34.7163
34.7163
26.8923
26.8923
25.9289
25.9289
16.7363
16.7363
12.5
12.5
18.672
18.672
48.2088
48.2088
16.7363
16.7363
18.0031
18.0031
10.8028
10.8028
9.00154
9.00154
16.7363
16.7363
5.60208
5.60208
30.0026
30.0026
24.1044
24.1044
15.5587
15.5587
16.1367
16.1367
12.0522
12.0522
33.4726
33.4726
25
25
24.1044
24.1044
19.3657
19.3657
18.672
18.672
20.0853
20.0853
41.6631
41.6631
24.1044
24.1044
18.672
18.672
18.0031
18.0031
43.2111
43.2111
15.0013
15.0013
16.7363
16.7363
17.3581
17.3581
38.7315
38.7315
17.3581
17.3581
18.672
18.672
12.5
12.5
30.0026
30.0026
22.4083
22.4083
11.6204
11.6204
26.8923
26.8923
20.8316
20.8316
7.77933
7.77933
30.0026
30.0026
12.5
12.5
13.4461
13.4461
32.2735
32.2735
22.4083
22.4083
12.5
12.5
21.6055
21.6055
19.3657
19.3657
6.97286
6.97286
28.9278
28.9278
12.9644
12.9644
6.97286
6.97286
31.1173
31.1173
18.0031
18.0031
15.0013
15.0013
31.1173
31.1173
16.7363
16.7363
11.2042
11.2042
26.8923
26.8923
18.0031
18.0031
6.0261
6.0261
27.8914
27.8914
10.4158
10.4158
6.48222
6.48222
24.1044
24.1044
20.8316
20.8316
6.25
6.25
26.8923
26.8923
16.1367
16.1367
37.344
37.344
24.1044
24.1044
18.0031
18.0031
37.344
37.344
24.1044
24.1044
11.2042
11.2042
46.4818
46.4818
21.6055
21.6055
19.3657
19.3657
31.1173
31.1173
25.9289
25.9289
16.7363
16.7363
33.4726
33.4726
23.2409
23.2409
18.0031
18.0031
37.344
37.344
22.4083
22.4083
16.1367
16.1367
32.2735
32.2735
17.3581
17.3581
18.0031
18.0031
33.4726
33.4726
14.4639
14.4639
11.6204
11.6204
22.4083
22.4083
20.8316
20.8316
6.48222
6.48222
25
25
18.672
18.672
40.1706
40.1706
16.1367
16.1367
15.0013
15.0013
25
25
15.5587
15.5587
44.8166
44.8166
25
25
16.7363
16.7363
33.4726
33.4726
20.8316
20.8316
8.06837
8.06837
30.0026
30.0026
20.0853
20.0853
12.9644
12.9644
20.0853
20.0853
18.672
18.672
6.25
6.25
27.8914
27.8914
20.0853
20.0853
12.0522
12.0522
25
25
18.0031
18.0031
31.1173
31.1173
16.1367
16.1367
43.2111
43.2111
20.8316
20.8316
7.77933
7.77933
27.8914
27.8914
15.0013
15.0013
32.2735
32.2735
19.3657
19.3657
6.25
6.25
27.8914
27.8914
15.5587
15.5587
28.9278
28.9278
10.4158
10.4158
14.4639
14.4639
38.7315
38.7315
11.6204
11.6204
12.9644
12.9644
24.1044
24.1044
19.3657
19.3657
30.0026
30.0026
15.5587
15.5587
5.40139
5.40139
28.9278
28.9278
19.3657
19.3657
25.9289
25.9289
18.672
18.672
28.9278
28.9278
9.33599
9.33599
26.8923
26.8923
9.33599
9.33599
28.9278
28.9278
15.5587
15.5587
21.6055
21.6055
12.0522
12.0522
25.9289
25.9289
18.0031
18.0031
32.2735
32.2735
15.5587
15.5587
26.8923
26.8923
5.81022
5.81022
23.2409
23.2409
16.7363
16.7363
26.8923
26.8923
13.9457
13.9457
25
25
16.7363
16.7363
20.0853
20.0853
10.8028
10.8028
25.9289
25.9289
16.1367
16.1367
22.4083
22.4083
16.1367
16.1367
25.9289
25.9289
14.4639
14.4639
23.2409
23.2409
10.8028
10.8028
20.8316
20.8316
11.6204
11.6204
18.672
18.672
6.25
6.25
15.0013
15.0013
7.77933
7.77933
24.1044
24.1044
6.72307
6.72307
22.4083
22.4083
12.0522
12.0522
28.9278
28.9278
5.81022
5.81022
23.2409
23.2409
6.0261
6.0261
14.4639
14.4639
11.2042
11.2042
25
25
5.40139
5.40139
20.8316
20.8316
5.81022
5.81022
24.1044
24.1044
5.20789
5.20789
25.9289
25.9289
5.60208
5.60208
23.2409
23.2409
24.1044
24.1044
25
25
18.0031
18.0031
22.4083
22.4083
19.3657
19.3657
20.0853
20.0853
15.0013
15.0013
20.0853
20.0853
62.2346
62.2346
23.2409
23.2409
15.0013
15.0013
18.0031
18.0031
46.4818
46.4818
23.2409
23.2409
86.4222
86.4222
11.2042
11.2042
48.2088
48.2088
22.4083
22.4083
53.7845
53.7845
16.1367
16.1367
89.6332
89.6332
23.2409
23.2409
64.547
64.547
17.3581
17.3581
50
50
18.0031
18.0031
34.7163
34.7163
18.672
18.672
38.7315
38.7315
18.672
18.672
43.2111
43.2111
19.3657
19.3657
37.344
37.344
16.7363
16.7363
38.7315
38.7315
18.672
18.672
34.7163
34.7163
19.3657
19.3657
33.4726
33.4726
20.0853
20.0853
32.2735
32.2735
16.7363
16.7363
33.4726
33.4726
15.5587
15.5587
28.9278
28.9278
11.6204
11.6204
37.344
37.344
8.67907
8.67907
36.0062
36.0062
20.0853
20.0853
28.9278
28.9278
16.7363
16.7363
31.1173
31.1173
17.3581
17.3581
22.4083
22.4083
6.97286
6.97286
16.1367
16.1367
13.9457
13.9457
19.3657
19.3657
17.3581
17.3581
15.5587
15.5587
44.8166
44.8166
11.6204
11.6204
30.0026
30.0026
10.0426
10.0426
40.1706
40.1706
13.9457
13.9457
37.344
37.344
11.2042
11.2042
30.0026
30.0026
10.0426
10.0426
30.0026
30.0026
6.72307
6.72307
23.2409
23.2409
13.9457
13.9457
20.0853
20.0853
28.9278
28.9278
12.0522
12.0522
25.9289
25.9289
7.50064
7.50064
16.1367
16.1367
57.8555
57.8555
18.672
18.672
32.2735
32.2735
12.9644
12.9644
27.8914
27.8914
6.0261
6.0261
21.6055
21.6055
55.7829
55.7829
17.3581
17.3581
50
50
17.3581
17.3581
43.2111
43.2111
15.5587
15.5587
28.9278
28.9278
18.0031
18.0031
31.1173
31.1173
7.23194
7.23194
23.2409
23.2409
11.6204
11.6204
21.6055
21.6055
36.0062
36.0062
16.7363
16.7363
27.8914
27.8914
43.2111
43.2111
16.7363
16.7363
31.1173
31.1173
14.4639
14.4639
21.6055
21.6055
14.4639
14.4639
17.3581
17.3581
37.344
37.344
16.1367
16.1367
21.6055
21.6055
66.9452
66.9452
18.0031
18.0031
26.8923
26.8923
6.97286
6.97286
23.2409
23.2409
48.2088
48.2088
10.0426
10.0426
30.0026
30.0026
13.9457
13.9457
19.3657
19.3657
64.547
64.547
12.0522
12.0522
20.8316
20.8316
15.5587
15.5587
17.3581
17.3581
20.8316
20.8316
46.4818
46.4818
15.5587
15.5587
25
25
40.1706
40.1706
15.5587
15.5587
24.1044
24.1044
44.8166
44.8166
18.0031
18.0031
27.8914
27.8914
44.8166
44.8166
8.67907
8.67907
19.3657
19.3657
41.6631
41.6631
18.0031
18.0031
22.4083
22.4083
38.7315
38.7315
14.4639
14.4639
23.2409
23.2409
43.2111
43.2111
17.3581
17.3581
25
25
36.0062
36.0062
16.7363
16.7363
22.4083
22.4083
31.1173
31.1173
17.3581
17.3581
20.8316
20.8316
32.2735
32.2735
18.672
18.672
21.6055
21.6055
31.1173
31.1173
8.67907
8.67907
23.2409
23.2409
31.1173
31.1173
16.1367
16.1367
22.4083
22.4083
28.9278
28.9278
13.9457
13.9457
14.4639
14.4639
25.9289
25.9289
16.1367
16.1367
13.9457
13.9457
27.8914
27.8914
15.5587
15.5587
16.7363
16.7363
30.0026
30.0026
6.0261
6.0261
15.0013
15.0013
31.1173
31.1173
14.4639
14.4639
18.0031
18.0031
28.9278
28.9278
16.1367
16.1367
13.4461
13.4461
33.4726
33.4726
11.6204
11.6204
18.0031
18.0031
30.0026
30.0026
10.4158
10.4158
19.3657
19.3657
27.8914
27.8914
12.0522
12.0522
18.0031
18.0031
28.9278
28.9278
13.9457
13.9457
18.0031
18.0031
25
25
36.0062
36.0062
11.6204
11.6204
17.3581
17.3581
23.2409
23.2409
12.9644
12.9644
16.1367
16.1367
22.4083
22.4083
6.0261
6.0261
19.3657
19.3657
15.5587
15.5587
9.68287
9.68287
16.1367
16.1367
22.4083
22.4083
80.3411
80.3411
16.1367
16.1367
20.8316
20.8316
25.9289
25.9289
10.8028
10.8028
11.2042
11.2042
25
25
43.2111
43.2111
17.3581
17.3581
19.3657
19.3657
21.6055
21.6055
36.0062
36.0062
15.0013
15.0013
12.5
12.5
23.2409
23.2409
41.6631
41.6631
11.6204
11.6204
20.0853
20.0853
23.2409
23.2409
40.1706
40.1706
6.72307
6.72307
16.7363
16.7363
25
25
38.7315
38.7315
11.6204
11.6204
15.5587
15.5587
20.0853
20.0853
28.9278
28.9278
6.48222
6.48222
17.3581
17.3581
26.8923
26.8923
25.9289
25.9289
13.4461
13.4461
18.672
18.672
22.4083
22.4083
32.2735
32.2735
12.5
12.5
17.3581
17.3581
17.3581
17.3581
23.2409
23.2409
32.2735
32.2735
6.72307
6.72307
15.0013
15.0013
21.6055
21.6055
21.6055
21.6055
23.2409
23.2409
20.8316
20.8316
33.4726
33.4726
9.68287
9.68287
11.2042
11.2042
20.0853
20.0853
19.3657
19.3657
13.9457
13.9457
25
25
24.1044
24.1044
16.7363
16.7363
17.3581
17.3581
8.36815
8.36815
18.0031
18.0031
12.0522
12.0522
15.5587
15.5587
14.4639
14.4639
17.3581
17.3581
15.0013
15.0013
18.0031
18.0031
13.4461
13.4461
10.4158
10.4158
9.00154
9.00154
18.672
18.672
12.0522
12.0522
17.3581
17.3581
10.8028
10.8028
15.0013
15.0013
8.67907
8.67907
14.4639
14.4639
12.9644
12.9644
11.6204
11.6204
8.06837
8.06837
9.68287
9.68287
17.3581
17.3581
16.1367
16.1367
6.48222
6.48222
17.3581
17.3581
7.50064
7.50064
13.4461
13.4461
6.97286
6.97286
16.1367
16.1367
6.72307
6.72307
7.23194
7.23194
10.0426
10.0426
12.5
12.5
12.5
12.5
15.0013
15.0013
5.60208
5.60208
9.33599
9.33599
5.81022
5.81022
10.0426
10.0426
55.7829
55.7829
10.4158
10.4158
53.7845
53.7845
48.2088
48.2088
57.8555
57.8555
62.2346
62.2346
96.4176
96.4176
51.8578
51.8578
86.4222
86.4222
72.0123
72.0123
77.463
77.463
69.4326
69.4326
40.1706
40.1706
46.4818
46.4818
50
50
34.7163
34.7163
38.7315
38.7315
32.2735
32.2735
36.0062
36.0062
32.2735
32.2735
20.8316
20.8316
31.1173
31.1173
30.0026
30.0026
26.8923
26.8923
33.4726
33.4726
28.9278
28.9278
24.1044
24.1044
25
25
24.1044
24.1044
22.4083
22.4083
18.0031
18.0031
16.1367
16.1367
17.3581
17.3581
7.23194
7.23194
44.8166
44.8166
46.4818
46.4818
27.8914
27.8914
21.6055
21.6055
19.3657
19.3657
11.2042
11.2042
6.48222
6.48222
41.6631
41.6631
25
25
15.5587
15.5587
5.40139
5.40139
64.547
64.547
23.2409
23.2409
9.00154
9.00154
32.2735
32.2735
18.672
18.672
12.9644
12.9644
62.2346
62.2346
40.1706
40.1706
16.7363
16.7363
9.68287
9.68287
13.9457
13.9457
34.7163
34.7163
17.3581
17.3581
6.48222
6.48222
13.9457
13.9457
7.00259e-312
7.00259e-312
7.00259e-312
7.00259e-312
7.00259e-312
7.00259e-312
7.00259e-312
7.00259e-312
7.00259e-312
7.00259e-312
7.00259e-312
7.00259e-312
7.00259e-312
7.00259e-312
7.00259e-312
7.00259e-312
7.00259e-312
7.00259e-312
7.00259e-312
7.00259e-312
7.00259e-312
7.00259e-312
7.00259e-312
7.00259e-312
7.00259e-312
7.00259e-312
7.00259e-312
7.00259e-312
7.00259e-312
7.00259e-312
7.00259e-312
7.00259e-312
7.00259e-312
7.00259e-312
7.00259e-312
7.00259e-312
7.00259e-312
7.00259e-312
7.00259e-312
7.00259e-312
7.00259e-312
7.00259e-312
7.00259e-312
7.00259e-312
7.00259e-312
7.00259e-312
7.00259e-312
7.00259e-312
7.00259e-312
7.00259e-312
7.00259e-312
7.00259e-312
7.00259e-312
7.00259e-312
7.00259e-312
7.00259e-312
7.00259e-312
7.00259e-312
7.00259e-312
7.00259e-312
7.00259e-312
7.00259e-312
7.00259e-312
7.00259e-312
7.00259e-312
7.00259e-312
7.00259e-312
7.00259e-312
7.00259e-312
7.00259e-312
7.00259e-312
7.00259e-312
7.00259e-312
7.00259e-312
7.00259e-312
7.00259e-312
7.00259e-312
7.00259e-312
7.00259e-312
7.00259e-312
7.00259e-312
7.00259e-312
7.00259e-312
7.00259e-312
7.00259e-312
7.00259e-312
7.00259e-312
7.00259e-312
7.00259e-312
7.00259e-312
7.00259e-312
7.00259e-312
7.00259e-312
7.00259e-312
7.00259e-312
7.00259e-312
7.00259e-312
7.00259e-312
7.00259e-312
7.00259e-312
7.00259e-312
7.00259e-312
7.00259e-312
7.00259e-312
7.00259e-312
7.00259e-312
7.00259e-312
7.00259e-312
7.00259e-312
7.00259e-312
7.00259e-312
7.00259e-312
7.00259e-312
7.00259e-312
7.00259e-312
7.00259e-312
7.00259e-312
7.00259e-312
7.00259e-312
7.00259e-312
7.00259e-312
7.00259e-312
7.00259e-312
7.00259e-312
7.00259e-312
7.00259e-312
7.00259e-312
7.00259e-312
7.00259e-312
7.00259e-312
7.00259e-312
7.00259e-312
7.00259e-312
7.00259e-312
7.00259e-312
7.00259e-312
7.00259e-312
7.00259e-312
7.00259e-312
7.00259e-312
7.00259e-312
7.00259e-312
7.00259e-312
7.00259e-312
7.00259e-312
7.00259e-312
7.00259e-312
7.00259e-312
7.00259e-312
7.00259e-312
7.00259e-312
7.00259e-312
7.00259e-312
7.00259e-312
7.00259e-312
7.00259e-312
7.00259e-312
7.00259e-312
7.00259e-312
7.00259e-312
7.00259e-312
7.00259e-312
7.00259e-312
7.00259e-312
7.00259e-312
7.00259e-312
7.00259e-312
7.00259e-312
7.00259e-312
7.00259e-312
7.00259e-312
7.00259e-312
7.00259e-312
7.00259e-312
7.00259e-312
7.00259e-312
7.00259e-312
7.00259e-312
7.00259e-312
7.00259e-312
7.00259e-312
7.00259e-312
7.00259e-312
7.00259e-312
7.00259e-312
7.00259e-312
7.00259e-312
7.00259e-312
7.00259e-312
7.00259e-312
7.00259e-312
7.00259e-312
7.00259e-312
7.00259e-312
7.00259e-312
7.00259e-312
7.00259e-312
7.00259e-312
7.00259e-312
7.00259e-312
7.00259e-312
7.00259e-312
7.00259e-312
7.00259e-312
7.00259e-312
7.00259e-312
7.00259e-312
7.00259e-312
7.00259e-312
7.00259e-312
7.00259e-312
7.00259e-312
7.00259e-312
7.00259e-312
7.00259e-312
7.00259e-312
7.00259e-312
7.00259e-312
7.00259e-312
7.00259e-312
7.00259e-312
7.00259e-312
7.00259e-312
7.00259e-312
7.00259e-312
7.00259e-312
7.00259e-312
7.00259e-312
7.00259e-312
7.00259e-312
7.00259e-312
7.00259e-312
7.00259e-312
7.00259e-312
7.00259e-312
7.00259e-312
7.00259e-312
7.00259e-312
7.00259e-312
7.00259e-312
7.00259e-312
7.00259e-312
7.00259e-312
7.00259e-312
7.00259e-312
7.00259e-312
7.00259e-312
7.00259e-312
7.00259e-312
7.00259e-312
7.00259e-312
7.00259e-312
7.00259e-312
7.00259e-312
7.00259e-312
7.00259e-312
7.00259e-312
7.00259e-312
7.00259e-312
7.00259e-312
7.00259e-312
7.00259e-312
7.00259e-312
7.00259e-312
7.00259e-312
7.00259e-312
7.00259e-312
7.00259e-312
7.00259e-312
7.00259e-312
7.00259e-312
7.00259e-312
7.00259e-312
7.00259e-312
7.00259e-312
7.00259e-312
7.00259e-312
7.00259e-312
7.00259e-312
7.00259e-312
7.00259e-312
7.00259e-312
7.00259e-312
7.00259e-312
7.00259e-312
7.00259e-312
7.00259e-312
7.00259e-312
7.00259e-312
7.00259e-312
7.00259e-312
7.00259e-312
7.00259e-312
7.00259e-312
7.00259e-312
7.00259e-312
7.00259e-312
7.00259e-312
7.00259e-312
7.00259e-312
7.00259e-312
7.00259e-312
7.00259e-312
7.00259e-312
7.00259e-312
7.00259e-312
7.00259e-312
7.00259e-312
7.00259e-312
7.00259e-312
7.00259e-312
7.00259e-312
7.00259e-312
7.00259e-312
7.00259e-312
7.00259e-312
7.00259e-312
7.00259e-312
7.00259e-312
7.00259e-312
7.00259e-312
7.00259e-312
7.00259e-312
7.00259e-312
7.00259e-312
7.00259e-312
7.00259e-312
7.00259e-312
7.00259e-312
7.00259e-312
7.00259e-312
7.00259e-312
7.00259e-312
7.00259e-312
7.00259e-312
7.00259e-312
7.00259e-312
7.00259e-312
7.00259e-312
7.00259e-312
7.00259e-312
7.00259e-312
7.00259e-312
7.00259e-312
7.00259e-312
7.00259e-312
7.00259e-312
7.00259e-312
7.00259e-312
7.00259e-312
7.00259e-312
7.00259e-312
7.00259e-312
7.00259e-312
7.00259e-312
7.00259e-312
7.00259e-312
7.00259e-312
7.00259e-312
7.00259e-312
7.00259e-312
7.00259e-312
7.00259e-312
7.00259e-312
7.00259e-312
7.00259e-312
7.00259e-312
7.00259e-312
7.00259e-312
7.00259e-312
7.00259e-312
7.00259e-312
7.00259e-312
7.00259e-312
7.00259e-312
7.00259e-312
7.00259e-312
7.00259e-312
7.00259e-312
7.00259e-312
7.00259e-312
7.00259e-312
7.00259e-312
7.00259e-312
7.00259e-312
7.00259e-312
7.00259e-312
7.00259e-312
7.00259e-312
7.00259e-312
7.00259e-312
7.00259e-312
7.00259e-312
7.00259e-312
7.00259e-312
7.00259e-312
7.00259e-312
7.00259e-312
7.00259e-312
7.00259e-312
7.00259e-312
7.00259e-312
7.00259e-312
7.00259e-312
7.00259e-312
7.00259e-312
7.00259e-312
7.00259e-312
7.00259e-312
7.00259e-312
7.00259e-312
7.00259e-312
7.00259e-312
7.00259e-312
7.00259e-312
7.00259e-312
7.00259e-312
7.00259e-312
7.00259e-312
7.00259e-312
7.00259e-312
7.00259e-312
7.00259e-312
7.00259e-312
7.00259e-312
7.00259e-312
7.00259e-312
7.00259e-312
7.00259e-312
