# vtk DataFile Version 3.0
Tree
ASCII
DATASET POLYDATA
POINTS 1732 float
40693.5 56318.5 68.45
40693.5 56318.5 2568.45
34443.5 55443.5 6443.45
33438.5 52817.5 12801.5
33740 53605.3 10894.1
34181.5 52569.5 14038.5
33906 52544.1 13722.1
33191.5 50094.5 18741.4
33311.9 51524.6 15600.8
28736.5 49352.5 17256.4
29797.9 49936.9 16559.3
25270.5 48857.5 14038.5
34098.9 52561.9 13943.6
37151.5 52322.5 13543.5
36036.4 52280.8 13896.1
38883.5 50342.5 16265.5
37232.2 51466.7 14891.2
36160.5 50094.5 17750.4
32257.7 51048.3 15888.3
29973.5 51332.5 14038.5
38337 50517.7 16116.7
38636.5 49104.5 18245.4
38783.4 50309.5 16257.2
40615.5 48857.5 17008.4
30088.1 51207.9 14146.5
27745.5 51084.5 12306.5
30088.1 51207.9 14146.5
30193.5 52443.4 10943.5
33791.6 54502.2 8050.86
32193.5 53193.4 8693.45
28149.7 49459.6 15906.8
26756.5 48609.5 16760.4
36391.4 50409.6 17643.1
35913.5 49847.5 20226.4
34036 54021.7 9399.16
35666.5 53312.5 10573.5
33069.9 50450.1 17880.9
30963.5 49352.5 19235.4
33411.7 52987.6 12320.9
31706.5 52322.5 13295.5
40476.8 48895.8 17069
41606.5 47867.5 17750.4
35872.9 50078.8 19322.2
34428.5 50094.5 20226.4
33074.8 50129.3 18648.3
32696.5 49352.5 20473.4
28333.2 50984.2 12980.8
26756.5 50094.5 13048.5
38691 49500.2 18065.2
39130.5 49104.5 19730.4
27299.7 48902.5 16552.8
27251.5 48362.5 18245.4
26039.1 48925.2 14640.3
24528.4 47372.5 15028.5
41267.2 48125.9 17642.9
41358.5 47372.5 18988.4
39167.6 49123.3 19283.6
40368.5 48362.5 20226.4
31396.7 49528.4 19253.9
30468.5 48857.5 20968.4
24922 47726.6 15173.7
24280.4 46877.5 16265.5
27127.8 48425.9 17790.1
26261.5 47619.5 18741.4
32963.9 49581.7 20195
33438.5 49352.5 21711.4
24514 47220.7 15727.7
23538.4 46382.5 15523.5
33386.5 49418.8 21175.2
35170.5 49104.5 21958.4
41504.7 47945 17718.1
42843.5 44154.5 16265.5
42274.5 46198.8 17489.4
42843.5 45392.5 17998.4
39864.1 48682 19830.4
39378.5 48114.5 21711.4
33422.9 49372.4 21550.5
32200.5 49599.5 28145.5
32238.2 49772.1 27859
30963.5 50342.5 34581.5
35040.7 49261.9 21956
37398.5 49352.5 23196.4
32211.8 49651.3 28059.6
37398.5 49352.5 32106.5
36067.4 49363.9 31810.7
37893.5 48857.5 37798.5
37146.9 48902.9 37279.5
36903.5 48362.5 43738.5
42689.9 44221.4 16318.9
42843.5 40689.5 14286.5
37204.7 49184.3 32009.5
43091.5 46877.5 32600.5
41308.2 47095.8 32982.8
45070.5 42669.5 36808.5
43795.8 44177.3 35980.9
44328.5 43659.5 42748.5
37385 48092.6 42583.7
39873.5 45392.5 47946.5
41453.8 47500.6 18847.5
43091.5 46134.5 22453.4
23831.1 46634 15584.8
20568.4 43164.5 20226.4
42556.5 46943 32715.2
46061.5 41927.5 29878.5
30665.6 50027.1 32774.6
26013.5 49352.5 36560.5
27409.1 49554.9 35424.7
28241.5 48114.5 41758.5
26699 47993.3 18539.9
26508.5 47372.5 22453.4
21532.9 44309.3 19267.3
21063.4 45392.5 25423.5
20857.8 43507.9 19938.7
19083.4 36977.5 19483.4
19910.6 38378.2 19104.9
21063.4 32522.5 15771.5
26432.2 49413.2 36219.8
23043.4 43907.5 36560.5
24043.1 44336.2 36720
23043.4 38214.5 37798.5
27935 48178.5 40040
27251.5 43164.5 42995.5
27556.9 43656.2 42955.2
27745.5 38462.5 46955.5
37083.4 49185.8 23227.7
40368.5 48362.5 26166.5
20655.2 43267.5 20140.1
18588.4 39947.5 24681.4
45149.7 42415.4 30783
46308.5 35739.5 30868.5
23343.3 44036.1 36608.3
20073.4 42174.5 31115.5
45805.1 36142.6 30690.9
45318.5 29552.5 30126.5
44083.5 43897.7 39635.4
44823.5 37719.5 42253.5
44033.4 38970.5 42104.9
42100.5 34997.5 45223.5
27764 39171.8 45702.2
28241.5 33512.5 45718.5
42600.2 46544.3 21371.6
45070.5 42669.5 21711.4
44542.3 42988.1 21515.6
46061.5 37472.5 20968.4
21669.8 45644.6 24543
23291.4 48114.5 29878.5
44709.2 42908 36419.8
46555.5 38214.5 35570.5
46036.7 35957.2 30772.6
44823.5 31532.5 35570.5
45130.7 30245.3 29854.4
43833.5 24849.4 28145.5
44557.7 32629.9 35194.8
41853.5 30542.5 40521.5
44743.8 31861.7 35457.8
41606.5 26334.5 34581.5
23521.2 39070.5 37264.8
24528.4 32522.5 36066.5
24906.9 33466.5 36575.8
27745.5 27819.5 36808.5
26953.9 29186.3 36378.4
27993.5 24354.4 31611.5
28364.2 25436.5 32985.2
32943.5 21384.4 30868.5
27508 28229.6 36679.5
32200.5 28067.5 41015.5
26736 47636 21511.3
28983.5 48609.5 24928.4
45559.1 38871.2 20812.5
45070.5 34997.5 16513.4
45091.4 35257.6 16570.2
44576.5 31532.5 11563.5
19319.8 40220.2 23593.7
19826.4 35492.5 25670.5
19768.6 36753.2 25407.8
21063.4 34254.5 30373.5
19809.1 35870.7 25591.7
20568.4 31037.5 22453.4
44235.6 26210.4 27947.7
43833.5 22622.4 22948.4
20036.9 34420.8 24650.2
22053.4 29799.5 27403.5
20642.1 31655.2 23079.5
23785.4 26087.5 22453.4
43970.2 23842.3 24648.2
39130.5 19404.4 24433.4
31949.6 22339.9 30816.3
34675.5 20394.4 26413.5
42671 44792.3 16893.1
44823.5 40937.5 17750.4
44912 42765.1 21652.7
45813.5 40442.5 25670.5
21418 42415.4 33396.4
20568.4 38709.5 32106.5
21364.5 33122.5 15734.6
23291.4 28809.5 12306.5
43733.9 22727.5 23190.3
41853.5 19157.4 19483.4
43954.1 25257.7 28086.1
40615.5 22869.4 30868.5
22867.2 29453.5 13577.1
24528.4 23859.4 13791.5
23503.8 26779.6 22041.2
26261.5 22622.4 19730.4
27990.2 24732.1 31783.7
26013.5 24107.4 26908.5
26308.1 23010.2 19730.7
29973.5 18662.4 16760.4
27415.9 48003.3 22947.7
26013.5 48362.5 26166.5
45898.2 37701.8 21073.7
46061.5 34254.5 23196.4
31055.2 50288.8 34465.8
32448.5 50837.5 38788.5
44113.9 43456.1 42199.2
43338.5 41679.5 45718.5
23186.7 38471.3 37638.4
25518.5 35492.5 41263.5
27907.3 37474 45707.1
30715.5 35244.5 49431.5
33673.7 49548.5 29134.7
37398.5 49352.5 28145.5
45078.4 35096.4 16535
46308.5 32274.5 18741.4
20862.5 39592.4 32612.7
21311.4 36234.5 34085.5
21718.5 31110.9 27318.9
23291.4 29552.5 30868.5
27771.9 27011.4 34410.4
31706.5 24602.4 35323.5
42939.1 40846.8 14301.2
43338.5 37719.5 12306.5
20848.2 35189.8 16503.6
21311.4 34749.5 12801.5
45386.5 41088.7 36326.9
45813.5 38709.5 39036.5
42125.7 31473.3 39861.6
40121.5 31779.5 43491.5
30759.2 28252.3 40005
30715.5 30047.5 44233.5
28365.5 48466.6 24651
28488.5 49104.5 27898.5
22825.8 47276.8 29245.6
23043.4 47124.5 33343.5
21935.5 31728.3 14914.8
22300.4 27819.5 17256.4
27397.2 24544.7 30321.1
24528.4 26829.5 29136.5
22731.2 45496.9 16856.4
21063.4 43659.5 16513.4
40077.1 47722.3 32690.8
41110.5 47619.5 36066.5
44099.9 43659.3 41019.9
41606.5 46134.5 43491.5
27343.1 43312 42983.4
24776.4 41184.5 40768.5
36307.2 49214.7 22744.5
36160.5 49599.5 25423.5
18807.8 40029.3 24355.1
19083.4 41927.5 27155.5
37227.9 48627.4 39082.9
34428.5 49599.5 41015.5
43269.9 37626.3 43527.3
42100.5 38214.5 47946.5
26576.8 47451.6 22170.8
24033.4 46382.5 22700.4
30938.4 50210.3 33958.4
34181.5 49847.5 35076.5
25431.6 47019.1 37114.7
25023.5 45144.5 39778.5
25753.6 31870.8 36701.2
27498.5 30542.5 39283.5
44207.7 41701.1 17241.9
44576.5 38957.5 15771.5
21014.6 42343.1 32712.2
21063.4 44897.5 30621.5
22682.6 30277.2 29694.1
22795.4 31779.5 32600.5
33559.7 20812.5 27140.7
33191.5 19652.4 23691.4
43055.4 46130.1 22266.3
44576.5 44402.5 24185.4
41169.6 47390.1 35486.2
42843.5 46382.5 38045.5
43457.5 29872.8 35548.9
41606.5 28314.5 37798.5
25507.1 35502.1 40735.8
27251.5 33264.5 42500.5
40247.4 48185.5 25833.8
42348.5 47372.5 27403.5
19353.8 37151.4 19462.2
19578.4 33759.5 20721.4
42368.7 27574 34744
42843.5 25592.5 31858.5
29543.4 28091.5 38555.6
32200.5 26087.5 38540.5
45242.2 42250.3 23811.4
45318.5 42917.5 25918.5
36135.7 49333.3 35386.9
34923.5 49847.5 37551.5
22550.6 28075.9 17068.8
23291.4 25592.5 18493.4
23097 47324.9 31872.3
24943.5 49193.4 33693.4
42058.4 47314.8 27083.6
44328.5 45392.5 28145.5
46136 38644 35844.2
45813.5 35739.5 36066.5
42150.7 35109.7 44817.7
41110.5 32769.5 45470.5
26434.2 48254.7 25200.9
24033.4 47124.5 25670.5
37819.3 48801.1 37702.5
39873.5 47867.5 38540.5
42903.7 31963 38681.7
43338.5 33759.5 42006.5
45262.2 29760.3 30044.9
44943.4 29193.5 33193.4
20272.2 41349 18918.1
19578.4 40194.5 17008.4
23346.1 40285.5 36822.2
22053.4 38462.5 35818.5
23296.5 29765.8 30791.7
25023.5 29057.5 33591.5
45383.4 40090.2 21294.8
46555.5 38462.5 22700.4
20769.2 32684.6 25623.2
21063.4 30294.5 24928.4
26162.4 42333.4 41964.6
25765.5 39204.5 42748.5
42777.7 46701.7 27564.5
43091.5 46382.5 29630.5
28164.9 49434.1 37900.2
29230.5 50094.5 39530.5
24416.7 24870.1 14256.4
26013.5 21879.4 16265.5
36805.3 49248.5 31781.3
39378.5 48857.5 30126.5
21363.4 37141.1 33930.5
22548.4 36234.5 35818.5
30084.1 24159.8 32559.5
32200.5 23117.4 33591.5
23151.7 47863.2 29688.6
25023.5 48857.5 29136.5
24817.8 41367.6 40756.8
23538.4 40689.5 39530.5
39785.8 45634.8 46518.6
41693.4 43943.4 47443.4
28451 49083.2 27774.3
28488.5 49599.5 30373.5
43869.7 24971.9 28127.7
42595.5 22622.4 26908.5
26294.2 47686.5 18665.1
24776.4 46629.5 18988.4
45700.6 39733.7 30091.8
46555.5 38214.5 28393.5
21157.1 30662.6 25150.6
22300.4 28314.5 25175.5
30653.3 48924.6 20894.9
30221.5 48362.5 22700.4
40404.9 47622.6 33529.4
39130.5 48857.5 35570.5
41935.2 30821.7 40323.5
39873.5 28809.5 40025.5
24825.3 46660.6 22407
23538.4 45392.5 20968.4
18654.2 39972 24583.5
19083.4 38957.5 27155.5
42133.4 20686.2 21790.7
40863.5 19652.4 21711.4
33460.9 49471.4 24751.1
34428.5 49352.5 25918.5
22610 43587 35318.6
21806.4 45144.5 33096.5
23700.9 26295.1 22329.7
23785.4 25839.5 24433.4
44630.7 41033.8 17674.8
44576.5 39204.5 18741.4
20160.9 36144.6 27305.2
20073.4 37224.5 29383.5
40817.8 21032.6 25125.7
39625.5 20147.4 26660.5
22757.2 46876.3 26602.3
24033.4 48114.5 27403.5
42374.8 46456.6 37883.3
42843.5 45639.5 40025.5
32599.3 21768.4 29685.8
34675.5 20394.4 29630.5
45678.6 42132.4 30258.4
45566.5 42917.5 28145.5
42805.6 21543.6 22378.5
43585.5 20889.4 19483.4
27265.2 33497.6 42508.7
28488.5 32274.5 43738.5
21245.3 45468.1 25159.3
19578.4 43412.5 25175.5
42728.4 29414.2 36665.1
42348.5 30047.5 38540.5
28577.1 34047.5 45785.2
29726.5 32027.5 45966.5
45875.8 41957.6 29958.8
46061.5 40937.5 28393.5
25253.7 41811.2 41094.5
24033.4 42669.5 39283.5
42672.8 45634.4 17845.7
43338.5 45639.5 19730.4
20947 44402 30686.7
20568.4 45639.5 28393.5
41791.6 24185.7 30373.7
41110.5 24354.4 31611.5
21451.4 43941.8 16822.5
20568.4 42422.5 17503.4
20600.7 34854.7 28665.6
20815.4 33017.5 28888.5
27785.9 37836.5 45602.6
26756.5 35739.5 44233.5
19887 40223.2 17415.7
[...]
CELL_DATA 1731
SCALARS radius float
LOOKUP_TABLE default
2.122e-314
100
100
100
72.0123
72.0123
66.9452
66.9452
57.8555
57.8555
46.4818
46.4818
64.547
64.547
60.0051
60.0051
53.7845
53.7845
53.7845
53.7845
50
50
48.2088
48.2088
50
50
48.2088
48.2088
89.6332
89.6332
41.6631
41.6631
50
50
80.3411
80.3411
55.7829
55.7829
66.9452
66.9452
44.8166
44.8166
48.2088
48.2088
53.7845
53.7845
46.4818
46.4818
48.2088
48.2088
40.1706
40.1706
40.1706
40.1706
43.2111
43.2111
46.4818
46.4818
53.7845
53.7845
37.344
37.344
38.7315
38.7315
50
50
36.0062
36.0062
48.2088
48.2088
41.6631
41.6631
40.1706
40.1706
44.8166
44.8166
46.4818
46.4818
40.1706
40.1706
44.8166
44.8166
38.7315
38.7315
31.1173
31.1173
27.8914
27.8914
36.0062
36.0062
28.9278
28.9278
23.2409
23.2409
20.0853
20.0853
22.4083
22.4083
41.6631
41.6631
34.7163
34.7163
22.4083
22.4083
33.4726
33.4726
25.9289
25.9289
36.0062
36.0062
27.8914
27.8914
26.8923
26.8923
21.6055
21.6055
25
25
20.8316
20.8316
21.6055
21.6055
17.3581
17.3581
40.1706
40.1706
25.9289
25.9289
20.8316
20.8316
20.0853
20.0853
16.7363
16.7363
18.672
18.672
17.3581
17.3581
14.4639
14.4639
37.344
37.344
32.2735
32.2735
22.4083
22.4083
18.672
18.672
16.1367
16.1367
15.5587
15.5587
12.5
12.5
12.0522
12.0522
18.672
18.672
15.5587
15.5587
13.9457
13.9457
12.5
12.5
12.9644
12.9644
30.0026
30.0026
25.9289
25.9289
23.2409
23.2409
23.2409
23.2409
20.0853
20.0853
18.672
18.672
13.4461
13.4461
17.3581
17.3581
16.1367
16.1367
12.9644
12.9644
10.4158
10.4158
37.344
37.344
31.1173
31.1173
15.5587
15.5587
18.672
18.672
12.5
12.5
12.5
12.5
16.1367
16.1367
14.4639
14.4639
11.6204
11.6204
12.0522
12.0522
28.9278
28.9278
25
25
31.1173
31.1173
16.1367
16.1367
17.3581
17.3581
13.4461
13.4461
36.0062
36.0062
22.4083
22.4083
13.9457
13.9457
16.1367
16.1367
13.4461
13.4461
32.2735
32.2735
20.0853
20.0853
16.7363
16.7363
10.8028
10.8028
10.8028
10.8028
27.8914
27.8914
19.3657
19.3657
18.0031
18.0031
11.2042
11.2042
32.2735
32.2735
25
25
16.7363
16.7363
16.7363
16.7363
43.2111
43.2111
22.4083
22.4083
25.9289
25.9289
16.7363
16.7363
28.9278
28.9278
32.2735
32.2735
23.2409
23.2409
15.0013
15.0013
33.4726
33.4726
14.4639
14.4639
15.0013
15.0013
9.00154
9.00154
36.0062
36.0062
23.2409
23.2409
11.2042
11.2042
16.7363
16.7363
36.0062
36.0062
20.0853
20.0853
10.0426
10.0426
11.2042
11.2042
28.9278
28.9278
28.9278
28.9278
16.1367
16.1367
18.0031
18.0031
34.7163
34.7163
15.5587
15.5587
16.1367
16.1367
26.8923
26.8923
26.8923
26.8923
11.6204
11.6204
15.0013
15.0013
24.1044
24.1044
19.3657
19.3657
13.4461
13.4461
27.8914
27.8914
16.7363
16.7363
15.5587
15.5587
32.2735
32.2735
24.1044
24.1044
13.9457
13.9457
30.0026
30.0026
12.9644
12.9644
11.6204
11.6204
18.672
18.672
14.4639
14.4639
20.8316
20.8316
25
25
11.6204
11.6204
33.4726
33.4726
18.0031
18.0031
15.5587
15.5587
50
50
24.1044
24.1044
10.4158
10.4158
26.8923
26.8923
21.6055
21.6055
11.2042
11.2042
43.2111
43.2111
18.672
18.672
13.9457
13.9457
32.2735
32.2735
19.3657
19.3657
11.6204
11.6204
20.8316
20.8316
20.8316
20.8316
9.68287
9.68287
20.0853
20.0853
12.0522
12.0522
15.0013
15.0013
21.6055
21.6055
10.4158
10.4158
11.2042
11.2042
19.3657
19.3657
15.0013
15.0013
38.7315
38.7315
12.5
12.5
11.2042
11.2042
31.1173
31.1173
18.0031
18.0031
13.9457
13.9457
21.6055
21.6055
17.3581
17.3581
11.2042
11.2042
20.8316
20.8316
15.0013
15.0013
41.6631
41.6631
32.2735
32.2735
12.5
12.5
22.4083
22.4083
10.0426
10.0426
30.0026
30.0026
17.3581
17.3581
17.3581
17.3581
41.6631
41.6631
15.0013
15.0013
16.7363
16.7363
24.1044
24.1044
20.8316
20.8316
26.8923
26.8923
10.8028
10.8028
23.2409
23.2409
15.0013
15.0013
30.0026
30.0026
18.0031
18.0031
16.1367
16.1367
31.1173
31.1173
20.0853
20.0853
30.0026
30.0026
9.68287
9.68287
24.1044
24.1044
14.4639
14.4639
26.8923
26.8923
13.4461
13.4461
18.0031
18.0031
10.4158
10.4158
20.8316
20.8316
18.0031
18.0031
34.7163
34.7163
10.0426
10.0426
20.0853
20.0853
10.0426
10.0426
20.8316
20.8316
16.1367
16.1367
33.4726
33.4726
18.0031
18.0031
14.4639
14.4639
23.2409
23.2409
15.5587
15.5587
21.6055
21.6055
12.5
12.5
17.3581
17.3581
16.7363
16.7363
24.1044
24.1044
15.0013
15.0013
20.8316
20.8316
11.2042
11.2042
21.6055
21.6055
13.9457
13.9457
21.6055
21.6055
12.0522
12.0522
20.8316
20.8316
11.6204
11.6204
22.4083
22.4083
12.9644
12.9644
16.7363
16.7363
12.5
12.5
22.4083
22.4083
10.8028
10.8028
20.8316
20.8316
19.3657
19.3657
19.3657
19.3657
12.5
12.5
20.0853
20.0853
12.0522
12.0522
21.6055
21.6055
14.4639
14.4639
30.0026
30.0026
64.547
64.547
16.1367
16.1367
44.8166
44.8166
16.7363
16.7363
43.2111
43.2111
18.0031
18.0031
64.547
64.547
18.672
18.672
50
50
18.672
18.672
86.4222
86.4222
13.4461
13.4461
40.1706
40.1706
27.8914
27.8914
48.2088
48.2088
16.7363
16.7363
33.4726
33.4726
11.6204
11.6204
38.7315
38.7315
16.1367
16.1367
34.7163
34.7163
17.3581
17.3581
44.8166
44.8166
24.1044
24.1044
41.6631
41.6631
23.2409
23.2409
33.4726
33.4726
15.5587
15.5587
28.9278
28.9278
22.4083
22.4083
40.1706
40.1706
23.2409
23.2409
27.8914
27.8914
12.5
12.5
40.1706
40.1706
12.0522
12.0522
31.1173
31.1173
18.0031
18.0031
32.2735
32.2735
24.1044
24.1044
23.2409
23.2409
15.5587
15.5587
24.1044
24.1044
15.5587
15.5587
25
25
11.2042
11.2042
25.9289
25.9289
20.8316
20.8316
19.3657
19.3657
16.1367
16.1367
32.2735
32.2735
10.4158
10.4158
28.9278
28.9278
15.0013
15.0013
23.2409
23.2409
20.8316
20.8316
26.8923
26.8923
10.8028
10.8028
25
25
15.5587
15.5587
21.6055
21.6055
16.1367
16.1367
25.9289
25.9289
10.0426
10.0426
21.6055
21.6055
69.4326
69.4326
30.0026
30.0026
46.4818
46.4818
22.4083
22.4083
36.0062
36.0062
12.0522
12.0522
24.1044
24.1044
15.0013
15.0013
20.0853
20.0853
10.8028
10.8028
13.4461
13.4461
12.0522
12.0522
13.9457
13.9457
33.4726
33.4726
13.9457
13.9457
25
25
15.5587
15.5587
21.6055
21.6055
12.9644
12.9644
22.4083
22.4083
10.0426
10.0426
22.4083
22.4083
62.2346
62.2346
13.9457
13.9457
43.2111
43.2111
22.4083
22.4083
31.1173
31.1173
15.0013
15.0013
37.344
37.344
15.0013
15.0013
24.1044
24.1044
10.8028
10.8028
15.0013
15.0013
32.2735
32.2735
16.1367
16.1367
38.7315
38.7315
62.2346
62.2346
20.0853
20.0853
25.9289
25.9289
15.5587
15.5587
19.3657
19.3657
51.8578
51.8578
25
25
26.8923
26.8923
21.6055
21.6055
18.672
18.672
10.4158
10.4158
30.0026
30.0026
33.4726
33.4726
15.0013
15.0013
12.0522
12.0522
38.7315
38.7315
26.8923
26.8923
25.9289
25.9289
13.4461
13.4461
37.344
37.344
34.7163
34.7163
12.5
12.5
27.8914
27.8914
15.5587
15.5587
17.3581
17.3581
36.0062
36.0062
13.4461
13.4461
32.2735
32.2735
13.9457
13.9457
19.3657
19.3657
31.1173
31.1173
15.5587
15.5587
20.8316
20.8316
36.0062
36.0062
9.33599
9.33599
34.7163
34.7163
27.8914
27.8914
9.68287
9.68287
18.672
18.672
31.1173
31.1173
14.4639
14.4639
32.2735
32.2735
38.7315
38.7315
22.4083
22.4083
22.4083
22.4083
13.4461
13.4461
20.8316
20.8316
33.4726
33.4726
19.3657
19.3657
21.6055
21.6055
30.0026
30.0026
14.4639
14.4639
31.1173
31.1173
32.2735
32.2735
12.9644
12.9644
19.3657
19.3657
27.8914
27.8914
8.67907
8.67907
13.9457
13.9457
31.1173
31.1173
10.0426
10.0426
19.3657
19.3657
28.9278
28.9278
15.0013
15.0013
19.3657
19.3657
25.9289
25.9289
11.6204
11.6204
28.9278
28.9278
33.4726
33.4726
11.6204
11.6204
16.7363
16.7363
23.2409
23.2409
11.6204
11.6204
16.1367
16.1367
20.8316
20.8316
12.9644
12.9644
14.4639
14.4639
25.9289
25.9289
11.2042
11.2042
12.9644
12.9644
22.4083
22.4083
12.5
12.5
17.3581
17.3581
19.3657
19.3657
33.4726
33.4726
18.0031
18.0031
22.4083
22.4083
46.4818
46.4818
15.0013
15.0013
27.8914
27.8914
77.463
77.463
21.6055
21.6055
20.8316
20.8316
55.7829
55.7829
20.0853
20.0853
33.4726
33.4726
31.1173
31.1173
11.2042
11.2042
32.2735
32.2735
25
25
16.1367
16.1367
16.7363
16.7363
21.6055
21.6055
12.5
12.5
11.2042
11.2042
19.3657
19.3657
30.0026
30.0026
10.0426
10.0426
23.2409
23.2409
26.8923
26.8923
12.0522
12.0522
19.3657
19.3657
33.4726
33.4726
37.344
37.344
20.0853
20.0853
19.3657
19.3657
25
25
48.2088
48.2088
13.4461
13.4461
21.6055
21.6055
24.1044
24.1044
51.8578
51.8578
25
25
18.672
18.672
83.3262
83.3262
13.9457
13.9457
13.4461
13.4461
20.0853
20.0853
57.8555
57.8555
14.4639
14.4639
15.0013
15.0013
18.672
18.672
27.8914
27.8914
13.9457
13.9457
20.8316
20.8316
21.6055
21.6055
36.0062
36.0062
19.3657
19.3657
12.9644
12.9644
16.7363
16.7363
19.3657
19.3657
13.9457
13.9457
31.1173
31.1173
15.5587
15.5587
18.0031
18.0031
20.8316
20.8316
15.0013
15.0013
16.1367
16.1367
31.1173
31.1173
18.0031
18.0031
26.8923
26.8923
27.8914
27.8914
16.1367
16.1367
16.1367
16.1367
25.9289
25.9289
17.3581
17.3581
17.3581
17.3581
18.0031
18.0031
16.7363
16.7363
15.0013
15.0013
24.1044
24.1044
25
25
16.7363
16.7363
17.3581
17.3581
11.2042
11.2042
25
25
11.6204
11.6204
18.672
18.672
14.4639
14.4639
23.2409
23.2409
15.5587
15.5587
11.6204
11.6204
10.8028
10.8028
21.6055
21.6055
15.0013
15.0013
12.5
12.5
10.0426
10.0426
12.9644
12.9644
10.8028
10.8028
10.8028
10.8028
18.0031
18.0031
10.8028
10.8028
15.5587
15.5587
16.7363
16.7363
15.5587
15.5587
15.0013
15.0013
16.1367
16.1367
10.0426
10.0426
21.6055
21.6055
9.68287
9.68287
9.00154
9.00154
16.1367
16.1367
12.9644
12.9644
12.5
12.5
16.1367
16.1367
12.9644
12.9644
14.4639
14.4639
14.4639
14.4639
13.4461
13.4461
13.9457
13.9457
15.5587
15.5587
9.33599
9.33599
12.5
12.5
13.4461
13.4461
15.0013
15.0013
13.9457
13.9457
12.9644
12.9644
12.0522
12.0522
10.4158
10.4158
9.68287
9.68287
17.3581
17.3581
17.3581
17.3581
20.0853
20.0853
51.8578
51.8578
51.8578
51.8578
44.8166
44.8166
48.2088
48.2088
69.4326
69.4326
92.9635
92.9635
55.7829
55.7829
37.344
37.344
74.6879
74.6879
34.7163
34.7163
41.6631
41.6631
38.7315
38.7315
34.7163
34.7163
34.7163
34.7163
31.1173
31.1173
34.7163
34.7163
30.0026
30.0026
26.8923
26.8923
25.9289
25.9289
34.7163
34.7163
14.4639
14.4639
21.6055
21.6055
14.4639
14.4639
11.6204
11.6204
10.8028
10.8028
51.8578
51.8578
34.7163
34.7163
30.0026
30.0026
14.4639
14.4639
18.672
18.672
14.4639
14.4639
37.344
37.344
12.0522
12.0522
10.8028
10.8028
18.672
18.672
20.0853
20.0853
16.7363
16.7363
9.68287
9.68287
10.8028
10.8028
17.3581
17.3581
12.0522
12.0522
46.4818
46.4818
14.4639
14.4639
51.8578
51.8578
15.5587
15.5587
96.4176
96.4176
12.0522
12.0522
11.6204
11.6204
13.9457
13.9457
32.2735
32.2735
13.4461
13.4461
60.0051
60.0051
7.00259e-312
7.00259e-312
7.00259e-312
7.00259e-312
7.00259e-312
7.00259e-312
7.00259e-312
7.00259e-312
7.00259e-312
7.00259e-312
7.00259e-312
7.00259e-312
7.00259e-312
7.00259e-312
7.00259e-312
7.00259e-312
7.00259e-312
7.00259e-312
7.00259e-312
7.00259e-312
7.00259e-312
7.00259e-312
7.00259e-312
7.00259e-312
7.00259e-312
7.00259e-312
7.00259e-312
7.00259e-312
7.00259e-312
7.00259e-312
7.00259e-312
7.00259e-312
7.00259e-312
7.00259e-312
7.00259e-312
7.00259e-312
7.00259e-312
7.00259e-312
7.00259e-312
7.00259e-312
7.00259e-312
7.00259e-312
7.00259e-312
7.00259e-312
7.00259e-312
7.00259e-312
7.00259e-312
7.00259e-312
7.00259e-312
7.00259e-312
7.00259e-312
7.00259e-312
7.00259e-312
7.00259e-312
7.00259e-312
7.00259e-312
7.00259e-312
7.00259e-312
7.00259e-312
7.00259e-312
7.00259e-312
7.00259e-312
7.00259e-312
7.00259e-312
7.00259e-312
7.00259e-312
7.00259e-312
7.00259e-312
7.00259e-312
7.00259e-312
7.00259e-312
7.00259e-312
7.00259e-312
7.00259e-312
7.00259e-312
7.00259e-312
7.00259e-312
7.00259e-312
7.00259e-312
7.00259e-312
7.00259e-312
7.00259e-312
7.00259e-312
7.00259e-312
7.00259e-312
7.00259e-312
7.00259e-312
7.00259e-312
7.00259e-312
7.00259e-312
7.00259e-312
7.00259e-312
7.00259e-312
7.00259e-312
7.00259e-312
7.00259e-312
7.00259e-312
7.00259e-312
7.00259e-312
7.00259e-312
7.00259e-312
7.00259e-312
7.00259e-312
7.00259e-312
7.00259e-312
7.00259e-312
7.00259e-312
7.00259e-312
7.00259e-312
7.00259e-312
7.00259e-312
7.00259e-312
7.00259e-312
7.00259e-312
7.00259e-312
7.00259e-312
7.00259e-312
7.00259e-312
7.00259e-312
7.00259e-312
7.00259e-312
7.00259e-312
7.00259e-312
7.00259e-312
7.00259e-312
7.00259e-312
7.00259e-312
7.00259e-312
7.00259e-312
7.00259e-312
7.00259e-312
7.00259e-312
7.00259e-312
7.00259e-312
7.00259e-312
7.00259e-312
7.00259e-312
7.00259e-312
7.00259e-312
7.00259e-312
7.00259e-312
7.00259e-312
7.00259e-312
7.00259e-312
7.00259e-312
7.00259e-312
7.00259e-312
7.00259e-312
7.00259e-312
7.00259e-312
7.00259e-312
7.00259e-312
7.00259e-312
7.00259e-312
7.00259e-312
7.00259e-312
7.00259e-312
7.00259e-312
7.00259e-312
7.00259e-312
7.00259e-312
7.00259e-312
7.00259e-312
7.00259e-312
7.00259e-312
7.00259e-312
7.00259e-312
7.00259e-312
7.00259e-312
7.00259e-312
7.00259e-312
7.00259e-312
7.00259e-312
7.00259e-312
7.00259e-312
7.00259e-312
7.00259e-312
7.00259e-312
7.00259e-312
7.00259e-312
7.00259e-312
7.00259e-312
7.00259e-312
7.00259e-312
7.00259e-312
7.00259e-312
7.00259e-312
7.00259e-312
7.00259e-312
7.00259e-312
7.00259e-312
7.00259e-312
7.00259e-312
7.00259e-312
7.00259e-312
7.00259e-312
7.00259e-312
7.00259e-312
7.00259e-312
7.00259e-312
7.00259e-312
7.00259e-312
7.00259e-312
7.00259e-312
7.00259e-312
7.00259e-312
7.00259e-312
7.00259e-312
7.00259e-312
7.00259e-312
7.00259e-312
7.00259e-312
7.00259e-312
7.00259e-312
7.00259e-312
7.00259e-312
7.00259e-312
7.00259e-312
7.00259e-312
7.00259e-312
7.00259e-312
7.00259e-312
7.00259e-312
7.00259e-312
7.00259e-312
7.00259e-312
7.00259e-312
7.00259e-312
7.00259e-312
7.00259e-312
7.00259e-312
7.00259e-312
7.00259e-312
7.00259e-312
7.00259e-312
7.00259e-312
7.00259e-312
7.00259e-312
7.00259e-312
7.00259e-312
7.00259e-312
7.00259e-312
7.00259e-312
7.00259e-312
7.00259e-312
7.00259e-312
7.00259e-312
7.00259e-312
7.00259e-312
7.00259e-312
7.00259e-312
7.00259e-312
7.00259e-312
7.00259e-312
7.00259e-312
7.00259e-312
7.00259e-312
7.00259e-312
7.00259e-312
7.00259e-312
7.00259e-312
7.00259e-312
7.00259e-312
7.00259e-312
7.00259e-312
7.00259e-312
7.00259e-312
7.00259e-312
7.00259e-312
7.00259e-312
7.00259e-312
7.00259e-312
7.00259e-312
7.00259e-312
7.00259e-312
7.00259e-312
7.00259e-312
7.00259e-312
7.00259e-312
7.00259e-312
7.00259e-312
7.00259e-312
7.00259e-312
7.00259e-312
7.00259e-312
7.00259e-312
7.00259e-312
7.00259e-312
7.00259e-312
7.00259e-312
7.00259e-312
7.00259e-312
7.00259e-312
7.00259e-312
7.00259e-312
7.00259e-312
7.00259e-312
7.00259e-312
7.00259e-312
7.00259e-312
7.00259e-312
7.00259e-312
7.00259e-312
7.00259e-312
7.00259e-312
7.00259e-312
7.00259e-312
7.00259e-312
7.00259e-312
7.00259e-312
7.00259e-312
7.00259e-312
7.00259e-312
7.00259e-312
7.00259e-312
7.00259e-312
7.00259e-312
7.00259e-312
7.00259e-312
7.00259e-312
7.00259e-312
7.00259e-312
7.00259e-312
7.00259e-312
7.00259e-312
7.00259e-312
7.00259e-312
7.00259e-312
7.00259e-312
7.00259e-312
7.00259e-312
7.00259e-312
7.00259e-312
7.00259e-312
7.00259e-312
7.00259e-312
7.00259e-312
7.00259e-312
7.00259e-312
7.00259e-312
7.00259e-312
7.00259e-312
7.00259e-312
7.00259e-312
7.00259e-312
7.00259e-312
7.00259e-312
7.00259e-312
7.00259e-312
7.00259e-312
7.00259e-312
7.00259e-312
7.00259e-312
7.00259e-312
7.00259e-312
7.00259e-312
7.00259e-312
7.00259e-312
7.00259e-312
7.00259e-312
7.00259e-312
7.00259e-312
7.00259e-312
7.00259e-312
7.00259e-312
7.00259e-312
7.00259e-312
7.00259e-312
7.00259e-312
7.00259e-312
7.00259e-312
7.00259e-312
7.00259e-312
7.00259e-312
7.00259e-312
7.00259e-312
7.00259e-312
7.00259e-312
7.00259e-312
7.00259e-312
7.00259e-312
7.00259e-312
7.00259e-312
7.00259e-312
7.00259e-312
7.00259e-312
7.00259e-312
7.00259e-312
7.00259e-312
7.00259e-312
7.00259e-312
7.00259e-312
7.00259e-312
7.00259e-312
7.00259e-312
7.00259e-312
7.00259e-312
7.00259e-312
7.00259e-312
7.00259e-312
7.00259e-312
7.00259e-312
7.00259e-312
7.00259e-312
7.00259e-312
7.00259e-312
7.00259e-312
7.00259e-312
7.00259e-312
7.00259e-312
7.00259e-312
7.00259e-312
7.00259e-312
7.00259e-312
7.00259e-312
7.00259e-312
7.00259e-312
7.00259e-312
7.00259e-312
7.00259e-312
7.00259e-312
7.00259e-312
7.00259e-312
7.00259e-312
7.00259e-312
7.00259e-312
7.00259e-312
7.00259e-312
7.00259e-312
