# vtk DataFile Version 4.1
vtk output
ASCII
DATASET POLYDATA
POINTS 280 float
185774 231586 48773.8 185574 232774 52773.8 185634 232417 51573.8 
202510 223774 69773.8 197447 226367 64313.8 215774 206774 52885.8 
205868 218474 62832.6 222254 207774 75773.8 217572 209699 69860.6 
229774 194774 65889.8 221855 207201 74351 233790 197774 83773.8 
200647 223367 63751 214774 229954 54773.8 214061 212331 67752.2 
225814 220774 72773.8 222288 218241 71267.4 227998 218774 91773.8 
223628 219203 71839.8 218774 237774 72221.8 226285 218614 85621.8 
223886 234774 92773.8 227262 218285 91088.6 228002 215774 105774 
217895 236591 71694.2 210086 254774 70773.8 222973 234083 91045 
217886 250774 94773.8 210071 253210 70154.6 203338 264774 67773.8 
210081 254305 70588.2 211394 261774 82773.8 223612 234567 92255.4 
223942 231774 108774 207124 257111 68058.6 202010 258774 59773.8 
204500 263299 69156.2 200010 277774 76773.8 203687 264331 68188.6 
192442 269774 57773.8 210735 261157 81723.8 209222 271774 98773.8 
224497 226967 88550.6 206166 227774 102774 208586 269169 90602.2 
200034 285774 92773.8 199947 272809 72301.4 185774 286774 68225.8 
208842 229701 101302 194774 235578 113774 200123 233161 107011 
189774 236362 103774 188621 282521 67863 178774 283330 57773.8 
199961 284100 91519 189998 298774 90773.8 218643 247447 96660.6 
214774 257970 105774 194826 235560 111827 181774 241494 116774 
190086 297395 89552.6 181774 306426 85773.8 193666 268312 57746.6 
183962 270774 45773.8 190024 298360 90407.4 195262 295774 103774 
184267 303717 86907.4 177130 301774 74773.8 185689 239714 115290 
176774 241546 104774 181433 283034 58575.8 178774 282774 44045.8 
179571 283241 58014.6 168058 291774 55773.8 185738 285785 67968.6 
176774 292774 67501.8 193691 296550 99763.8 187210 305774 113774 
188465 303525 108030 179974 312774 107774 181382 310797 106323 
168802 321774 96773.8 203336 257079 60983.8 195774 251774 42969.8 
181244 282585 47587.8 189774 280774 33021.8 170287 290959 55538.6 
161774 302410 49773.8 170912 318261 96749.8 161962 321774 85773.8 
180396 312181 107339 171774 317214 115774 167340 318887 90671.4 
167774 313950 80773.8 167052 295310 53348.2 157774 299774 61429.8 
178602 241070 109716 162446 243774 107774 169435 320720 96766.6 
155774 327978 99773.8 162698 320233 86508.2 153774 317986 78773.8 
173603 316231 112261 163286 322774 111774 197464 254606 46266.2 
193262 261774 31773.8 162183 321311 85994.2 151774 326022 86773.8 
156253 326803 98492.2 145774 330002 97773.8 166677 314418 82258.6 
160774 307774 72289.8 166129 243184 106898 157594 244774 97773.8 
174860 241704 108870 166466 243774 120774 172323 316919 114720 
163126 312774 127774 155343 317583 79851.8 147774 310774 71557.8 
163405 243674 108377 153774 245550 115774 158758 299129 59155.8 
146910 303774 60773.8 194791 296007 102571 197774 290774 120882 
160154 244297 100511 145774 245550 103774 146783 329417 97267.8 
132774 331998 92773.8 165885 314017 123858 149774 319182 123774 
146077 329827 97621.8 144774 327222 111774 163724 312107 126879 
155774 302774 137890 160703 308561 131063 149774 311026 131774 
153044 324715 85935.4 140774 325774 82289.8 134876 331022 94407 
120774 330006 95773.8 150841 318534 122674 139774 321294 119774 
168915 243291 119660 167774 244318 135774 156094 245043 115317 
151774 245550 126774 153070 245398 123337 140774 245550 123774 
146735 245149 104690 132774 245550 110774 155985 303076 136799 
147774 293774 143262 121367 329541 94776.6 106774 327186 93773.8 
140561 320228 120374 126774 321430 117774 148451 295869 141589 
136774 290802 143774 137937 245109 106758 126774 243634 100774 
128017 321549 116636 117590 322774 112774 127147 321466 117433 
129774 310774 129178 141707 325208 82714.2 123774 323774 78289.8 
150471 310447 130852 139774 311774 129294 109034 327065 93064.6 
94773.8 321782 86773.8 112734 327808 93578.2 109774 323202 79773.8 
103467 324921 92025.4 96773.8 321938 97773.8 133867 245325 110825 
121774 245546 125774 151455 245472 126141 144774 245550 134774 
120419 321127 115045 105774 314774 117134 126134 245171 118086 
115774 243550 116774 109313 323730 83361 100774 318094 78773.8 
117659 321995 113092 107774 323206 106774 128986 313981 125654 
118774 307774 128006 97461 321925 96361.8 88773.8 316094 98773.8 
107661 316247 115021 95773.8 312774 111974 118882 244036 117167 
113970 242774 104774 109635 323360 80849.8 114774 315558 71773.8 
90139.4 317270 97282.6 81773.8 313250 92773.8 116706 243696 116892 
108774 243482 121774 99094.2 312659 113712 89773.8 303270 116774 
119851 308890 127090 106774 303774 126002 119097 308109 127731 
123774 298774 135198 114009 242679 107840 104774 239662 102774 
90796.2 305295 114827 82773.8 299774 113322 96081.4 312399 112133 
87773.8 310446 107774 87105.8 302755 114135 86773.8 294970 119774 
84073.4 300668 113566 78773.8 302774 105974 84701.8 314344 92951.8 
81773.8 311014 82773.8 86926.6 298551 117180 95577.8 297774 123774 
122371 301574 132958 113774 291774 135814 109708 241458 107023 
101102 239774 111774 137314 290565 142982 127774 285774 143814 
83163.8 300042 113395 74773.8 290774 112046 102120 239909 110071 
91773.8 237494 108774 87091.4 295082 119499 88573.8 284774 125774 
114667 294140 134477 103578 289774 131774 128950 286507 143226 
117774 281774 141222 79228.6 301197 107788 68773.8 296774 99949.8 
78858.6 293639 113708 78181.8 282774 119774 77543.8 289184 115371 
70773.8 282774 113886 93404.6 237208 107789 85773.8 233714 103774 
71910.2 298101 102301 66357.8 288774 105774 88435.4 284993 124911 
89773.8 273774 129866 89372.2 277139 128379 80681.8 270774 125774 
77341.4 283807 118233 73773.8 274126 119774 71521.8 283098 113826 
63773.8 274774 111550 66125.4 278633 111175 56773.8 276774 101882 
68023.4 291572 104732 59557.8 286774 94773.8 86854.2 234358 105418 
78773.8 231578 107774 62831 289067 96999 61773.8 291158 85773.8 
58738.6 276156 104131 52773.8 268774 100026 81197.8 232412 107067 
72773.8 227446 98773.8 60325.4 286543 95208.6 53117.8 276774 89773.8 
63137.4 291158 91638.6 67661.8 298774 86773.8 65161.4 275511 111933 
63773.8 263774 115866 62080.2 290124 87428.2 59773.8 283774 79577.8 
61865.8 290848 86270.2 68209.8 290774 75773.8 53654.2 270347 99839 
47557.8 265774 90773.8 
LINES 279 837
2 2 1 
2 0 2 
2 4 3 
2 2 4 
2 6 5 
2 12 6 
2 10 7 
2 14 8 
2 8 9 
2 8 10 
2 10 11 
2 4 12 
2 12 13 
2 6 14 
2 18 15 
2 14 16 
2 22 17 
2 16 18 
2 24 19 
2 16 20 
2 32 21 
2 20 22 
2 22 23 
2 18 24 
2 30 25 
2 42 26 
2 56 27 
2 24 28 
2 38 29 
2 28 30 
2 40 31 
2 26 32 
2 32 33 
2 28 34 
2 82 35 
2 34 36 
2 46 37 
2 36 38 
2 62 39 
2 30 40 
2 44 41 
2 20 42 
2 48 43 
2 40 44 
2 54 45 
2 36 46 
2 74 47 
2 42 48 
2 58 49 
2 48 50 
2 50 51 
2 46 52 
2 72 53 
2 44 54 
2 64 55 
2 26 56 
2 56 57 
2 50 58 
2 68 59 
2 54 60 
2 66 61 
2 38 62 
2 62 63 
2 60 64 
2 124 65 
2 60 66 
2 66 67 
2 58 68 
2 96 69 
2 52 70 
2 84 71 
2 70 72 
2 86 73 
2 52 74 
2 74 75 
2 64 76 
2 78 77 
2 76 78 
2 90 79 
2 78 80 
2 98 81 
2 34 82 
2 104 83 
2 70 84 
2 84 85 
2 72 86 
2 94 87 
2 80 88 
2 106 89 
2 80 90 
2 116 91 
2 88 92 
2 110 93 
2 86 94 
2 122 95 
2 68 96 
2 120 97 
2 88 98 
2 108 99 
2 92 100 
2 118 101 
2 90 102 
2 102 103 
2 82 104 
2 104 105 
2 100 106 
2 138 107 
2 98 108 
2 132 109 
2 92 110 
2 110 111 
2 114 112 
2 126 113 
2 96 114 
2 144 115 
2 102 116 
2 134 117 
2 100 118 
2 118 119 
2 112 120 
2 146 121 
2 94 122 
2 122 123 
2 76 124 
2 124 125 
2 112 126 
2 150 127 
2 108 128 
2 140 129 
2 116 130 
2 142 131 
2 128 132 
2 132 133 
2 130 134 
2 152 135 
2 134 136 
2 168 137 
2 106 138 
2 166 139 
2 128 140 
2 154 141 
2 130 142 
2 156 143 
2 114 144 
2 144 145 
2 120 146 
2 178 147 
2 146 148 
2 148 149 
2 126 150 
2 176 151 
2 136 152 
2 158 153 
2 140 154 
2 170 155 
2 142 156 
2 164 157 
2 152 158 
2 226 159 
2 150 160 
2 160 161 
2 156 162 
2 186 163 
2 162 164 
2 188 165 
2 138 166 
2 166 167 
2 136 168 
2 168 169 
2 172 170 
2 174 171 
2 154 172 
2 196 173 
2 170 174 
2 190 175 
2 160 176 
2 182 177 
2 148 178 
2 178 179 
2 162 180 
2 192 181 
2 176 182 
2 200 183 
2 172 184 
2 184 185 
2 180 186 
2 186 187 
2 164 188 
2 206 189 
2 174 190 
2 198 191 
2 180 192 
2 212 193 
2 182 194 
2 208 195 
2 184 196 
2 196 197 
2 190 198 
2 218 199 
2 194 200 
2 200 201 
2 192 202 
2 210 203 
2 188 204 
2 204 205 
2 204 206 
2 222 207 
2 194 208 
2 224 209 
2 202 210 
2 228 211 
2 202 212 
2 212 213 
2 210 214 
2 232 215 
2 214 216 
2 238 217 
2 198 218 
2 218 219 
2 214 220 
2 220 221 
2 206 222 
2 234 223 
2 208 224 
2 230 225 
2 158 226 
2 236 227 
2 216 228 
2 240 229 
2 224 230 
2 244 231 
2 220 232 
2 248 233 
2 222 234 
2 234 235 
2 226 236 
2 236 237 
2 216 238 
2 246 239 
2 228 240 
2 252 241 
2 240 242 
2 254 243 
2 230 244 
2 260 245 
2 238 246 
2 258 247 
2 232 248 
2 250 249 
2 248 250 
2 250 251 
2 242 252 
2 252 253 
2 242 254 
2 272 255 
2 254 256 
2 264 257 
2 246 258 
2 268 259 
2 244 260 
2 266 261 
2 258 262 
2 276 263 
2 256 264 
2 278 265 
2 260 266 
2 266 267 
2 262 268 
2 268 269 
2 262 270 
2 270 271 
2 256 272 
2 272 273 
2 270 274 
2 274 275 
2 274 276 
2 276 277 
2 264 278 
2 278 279 

CELL_DATA 279
SCALARS radius float
LOOKUP_TABLE default
96.4176 100 92.9635 96.4176 86.4222 89.6332 77.463 83.3262 80.3411 
80.3411 77.463 92.9635 89.6332 86.4222 77.463 83.3262 74.6879 80.3411 
74.6879 80.3411 69.4326 77.463 74.6879 77.463 69.4326 74.6879 69.4326 
74.6879 64.547 72.0123 66.9452 72.0123 69.4326 72.0123 66.9452 69.4326 
64.547 66.9452 62.2346 69.4326 64.547 77.463 72.0123 66.9452 62.2346 
66.9452 60.0051 74.6879 66.9452 72.0123 69.4326 64.547 57.8555 64.547 
57.8555 72.0123 69.4326 69.4326 64.547 62.2346 57.8555 64.547 62.2346 
60.0051 53.7845 60.0051 57.8555 66.9452 62.2346 62.2346 57.8555 60.0051 
55.7829 62.2346 60.0051 57.8555 53.7845 55.7829 50 53.7845 48.2088 
69.4326 64.547 60.0051 57.8555 57.8555 53.7845 51.8578 44.8166 51.8578 
46.4818 50 46.4818 55.7829 51.8578 64.547 55.7829 50 46.4818 
48.2088 44.8166 50 48.2088 66.9452 64.547 46.4818 43.2111 48.2088 
43.2111 48.2088 46.4818 60.0051 55.7829 62.2346 57.8555 48.2088 43.2111 
46.4818 44.8166 57.8555 53.7845 53.7845 51.8578 55.7829 53.7845 57.8555 
53.7845 46.4818 43.2111 46.4818 43.2111 44.8166 43.2111 44.8166 40.1706 
43.2111 40.1706 44.8166 41.6631 44.8166 41.6631 44.8166 41.6631 60.0051 
57.8555 55.7829 50 53.7845 51.8578 55.7829 50 41.6631 38.7315 
43.2111 38.7315 43.2111 38.7315 40.1706 37.344 53.7845 51.8578 41.6631 
37.344 40.1706 37.344 43.2111 41.6631 41.6631 40.1706 40.1706 37.344 
41.6631 37.344 38.7315 36.0062 51.8578 48.2088 51.8578 50 40.1706 
37.344 50 44.8166 40.1706 38.7315 38.7315 37.344 38.7315 34.7163 
37.344 34.7163 38.7315 34.7163 48.2088 44.8166 38.7315 37.344 36.0062 
33.4726 46.4818 44.8166 37.344 34.7163 37.344 36.0062 36.0062 33.4726 
46.4818 43.2111 36.0062 31.1173 36.0062 34.7163 34.7163 31.1173 33.4726 
31.1173 34.7163 33.4726 33.4726 32.2735 34.7163 32.2735 44.8166 41.6631 
38.7315 36.0062 32.2735 30.0026 43.2111 40.1706 32.2735 30.0026 33.4726 
32.2735 37.344 36.0062 32.2735 30.0026 31.1173 27.8914 30.0026 27.8914 
41.6631 38.7315 31.1173 28.9278 31.1173 28.9278 30.0026 28.9278 28.9278 
27.8914 28.9278 25.9289 27.8914 25.9289 30.0026 26.8923 40.1706 37.344 
28.9278 25 26.8923 25 38.7315 37.344 27.8914 26.8923 27.8914 
26.8923 26.8923 25.9289 26.8923 25.9289 25.9289 25 25.9289 25 

