# vtk DataFile Version 3.0
Tree
ASCII
DATASET POLYDATA
POINTS 40 float
0 0 0.0287941
-0.00108484 0.0168429 -0.0217502
-0.00516154 -0.00231368 0.00850432
-0.0175042 -0.0226999 -0.000345742
-0.00671551 -0.0100028 0.0022322
0.00754242 -0.0179196 -0.0192286
-0.00154846 -0.000694104 0.0227072
0.0268245 0.00230906 0.000501101
-0.00263239 -0.00117998 0.0184463
-0.0136619 0.0205079 0.00934509
0.0111593 -0.0053976 0.0117847
0.0195166 -0.0200664 0.00273204
-0.00440279 -0.00197357 0.0114869
-0.028224 0.00262611 -0.0039035
0.00309336 0.0058784 -0.00902372
0.0196612 0.00505056 -0.0195193
-0.0035443 -0.0110683 -0.0100163
-0.00761084 -0.00702226 -0.0231174
0.0187379 0.00336605 0.00383052
0.0203226 0.0170935 -0.00372749
-0.000464539 -0.000208231 0.026968
0.0131111 0.0143551 0.0181986
-0.00125839 0.00484795 -0.00100788
-0.00263625 0.0236794 -0.00560383
-0.0104462 0.00614691 0.0150828
-0.0210851 0.00639785 0.014235
-0.00394206 -0.0124668 -0.00183233
0.00697893 -0.0255478 -0.00317811
0.00769385 0.0108853 0.0171038
0.00927884 0.0186068 0.00426645
-0.0113488 -0.0134456 -5.142e-05
-0.0190039 -0.0101069 -0.00910764
0.0136411 -0.00972064 0.0067128
0.0127691 -0.00798655 -0.00698434
-0.0151758 0.00199414 -0.000657905
-0.0156536 0.00694006 -0.0142984
-0.00316351 -0.00141806 0.0163585
-0.000280186 -0.0214673 0.012576
-0.00958189 -0.00216136 0.00764258
-0.0206198 -0.0109669 0.00744953
LINES 39 117
2 14 1
2 12 2
2 30 3
2 2 4
2 16 5
2 20 6
2 18 7
2 6 8
2 24 9
2 6 10
2 32 11
2 36 12
2 34 13
2 22 14
2 14 15
2 26 16
2 16 17
2 10 18
2 18 19
2 0 20
2 28 21
2 2 22
2 22 23
2 8 24
2 24 25
2 4 26
2 26 27
2 20 28
2 28 29
2 4 30
2 30 31
2 10 32
2 32 33
2 38 34
2 34 35
2 8 36
2 36 37
2 12 38
2 38 39
CELL_DATA 39
SCALARS radius float
LOOKUP_TABLE default
0.461729
0.892693
0.408422
0.749551
0.468136
1.13283
0.410451
1.04086
0.419806
0.688312
0.416534
0.978117
0.432071
0.591179
0.476477
0.581947
0.455473
0.560483
0.47463
1.16476
0.353077
0.662115
0.437354
0.505453
0.380638
0.653757
0.435031
0.501924
0.435211
0.521347
0.41903
0.531368
0.426835
0.549616
0.440312
0.999506
0.39736
0.60767
0.387894
