# vtk DataFile Version 3.0
Tree
ASCII
DATASET POLYDATA
POINTS 98 float
0 0 0.0287941
-0.00108484 0.0168429 -0.0217502
-0.00516154 -0.00231368 0.00850432
-0.0175042 -0.0226999 -0.000345742
-0.00671551 -0.0100028 0.0022322
0.00754242 -0.0179196 -0.0192286
-0.00154846 -0.000694104 0.0227072
0.0268245 0.00230906 0.000501101
-0.00263239 -0.00117998 0.0184463
-0.0136619 0.0205079 0.00934509
0.0111593 -0.0053976 0.0117847
0.0195166 -0.0200664 0.00273204
-0.00440279 -0.00197357 0.0114869
-0.028224 0.00262611 -0.0039035
0.00309336 0.0058784 -0.00902372
0.0196612 0.00505056 -0.0195193
-0.0035443 -0.0110683 -0.0100163
-0.00761084 -0.00702226 -0.0231174
0.0187379 0.00336605 0.00383052
0.0203226 0.0170935 -0.00372749
-0.000464539 -0.000208231 0.026968
0.0131111 0.0143551 0.0181986
-0.00125839 0.00484795 -0.00100788
-0.00263625 0.0236794 -0.00560383
-0.0104462 0.00614691 0.0150828
-0.0210851 0.00639785 0.014235
-0.00394206 -0.0124668 -0.00183233
0.00697893 -0.0255478 -0.00317811
0.00769385 0.0108853 0.0171038
0.00927884 0.0186068 0.00426645
-0.0113488 -0.0134456 -5.142e-05
-0.0190039 -0.0101069 -0.00910764
0.0136411 -0.00972064 0.0067128
0.0127691 -0.00798655 -0.00698434
-0.0151758 0.00199414 -0.000657905
-0.0156536 0.00694006 -0.0142984
-0.00316351 -0.00141806 0.0163585
-0.000280186 -0.0214673 0.012576
-0.00958189 -0.00216136 0.00764258
-0.0206198 -0.0109669 0.00744953
0.015135 -0.00297751 0.00957274
0.0249412 -0.00501255 0.0113253
-0.00382273 -0.0120472 -0.00428752
-0.0103701 -0.0224925 -0.0120978
-0.002297 -0.0084722 -0.0163346
0.00439595 -0.00526458 -0.0213522
-0.00476607 0.0153984 -0.00642765
-0.0122111 0.0210063 -0.0151117
0.00526057 0.0051981 0.0219779
0.0153712 0.00433539 0.0216217
-0.000789716 -0.000353993 0.0256898
-0.00511565 0.0123676 0.0223506
0.00711626 0.0161243 0.0133968
0.00427247 0.0229774 0.0148678
0.0119038 -0.00669451 0.0102631
0.0139239 -0.019059 0.0135949
-0.0139368 0.0162692 0.00825103
-0.0183189 0.0217823 -0.00111969
-0.00362783 -0.011362 -0.00829765
-0.0123887 -0.00386227 -0.014732
-0.000588106 -0.000263621 0.0264823
-0.00142702 -0.0138052 0.0251504
-0.00496224 -0.0131544 0.014734
-0.0128828 -0.0204203 0.0148795
0.0218174 0.00337841 0.000728439
0.0251391 0.00549285 -0.0119062
-0.000278573 -0.0195623 0.0123528
0.00641422 -0.0265392 0.00869595
0.00586871 -0.0139458 -0.0164462
0.0142354 -0.0115575 -0.0198201
-0.00214344 0.0126437 -0.00549509
0.00519782 0.0220985 -0.0133159
-0.00317619 -0.00674687 0.0146729
0.00124271 -0.0101401 0.00837982
0.000980842 -0.0106329 0.0245069
0.00621373 -0.0179515 0.0213299
-0.000499372 0.00521117 -0.00579871
-0.00671622 0.00486626 -0.0151885
-0.00242934 0.00269946 0.00184578
0.00658823 0.00849082 0.0030291
-0.00809496 -0.0162331 -0.0102542
-0.011598 -0.0150592 -0.016671
-0.0118241 0.0103152 0.0137643
-0.0135562 0.016399 0.01884
-0.00789433 0.00243123 0.0174301
-0.0162181 0.00211031 0.021518
-0.0142285 0.0132711 0.0103225
-0.0225093 0.0131413 0.00611353
-0.00230721 -0.00103422 0.0197246
-0.011577 -0.00631299 0.0195374
-0.00353529 -0.00158471 0.014897
-0.00318279 0.00600651 0.0116985
0.0201279 -0.0051269 0.00855476
0.0245617 -0.00890959 0.00443493
0.0156216 -0.00861853 0.000825286
0.0214617 -0.00727089 -0.00257364
0.021649 0.00276863 -0.00557242
0.0183689 -0.000611742 -0.0109449
LINES 97 291
2 14 1
2 12 2
2 30 3
2 2 4
2 68 5
2 50 6
2 64 7
2 88 8
2 56 9
2 6 10
2 32 11
2 90 12
2 34 13
2 76 14
2 14 15
2 58 16
2 44 17
2 40 18
2 18 19
2 0 20
2 28 21
2 78 22
2 46 23
2 84 24
2 24 25
2 4 26
2 26 27
2 48 28
2 52 29
2 4 30
2 30 31
2 54 32
2 94 33
2 38 34
2 34 35
2 8 36
2 66 37
2 12 38
2 38 39
2 10 40
2 92 41
2 26 42
2 80 43
2 16 44
2 44 45
2 70 46
2 46 47
2 20 48
2 48 49
2 60 50
2 50 51
2 28 52
2 52 53
2 10 54
2 54 55
2 86 56
2 56 57
2 42 58
2 58 59
2 20 60
2 74 61
2 72 62
2 62 63
2 18 64
2 96 65
2 62 66
2 66 67
2 16 68
2 68 69
2 22 70
2 70 71
2 36 72
2 72 73
2 60 74
2 74 75
2 22 76
2 76 77
2 2 78
2 78 79
2 42 80
2 80 81
2 24 82
2 82 83
2 8 84
2 84 85
2 82 86
2 86 87
2 6 88
2 88 89
2 36 90
2 90 91
2 40 92
2 92 93
2 32 94
2 94 95
2 64 96
2 96 97
CELL_DATA 97
SCALARS radius float
LOOKUP_TABLE default
0.367065
0.880812
0.32149
0.734671
0.332543
1.13976
0.292202
1.0337
0.289416
0.709613
0.325831
0.926915
0.343774
0.469975
0.378789
0.564037
0.347989
0.553373
0.361774
1.18495
0.275734
0.639984
0.329635
0.540894
0.294202
0.689236
0.339714
0.455041
0.342118
0.41038
0.32984
0.470346
0.333852
0.437298
0.350331
0.974839
0.243114
0.483488
0.308625
0.607057
0.290778
0.660549
0.325545
0.439818
0.350171
0.43787
0.363765
0.487557
0.278824
1.14526
0.278345
0.418425
0.321447
0.511231
0.309204
0.421551
0.370041
0.601274
0.336014
1.15677
0.250602
0.455754
0.308894
0.496111
0.368419
0.402469
0.370414
0.455268
0.38617
0.502976
0.351133
0.484585
0.267428
0.357661
0.310773
0.51284
0.314385
0.659488
0.291237
0.413762
0.331212
0.510169
0.289519
0.562667
0.270942
0.476977
0.322697
1.03951
0.265576
0.933169
0.25318
0.378574
0.309582
0.411066
0.318305
0.459718
0.361267
