# vtk DataFile Version 3.0
Tree
ASCII
DATASET POLYDATA
POINTS 2 float
0 0 0
0.316172 -1.72243 0
LINES 1 3
2 0 1
CELL_DATA 1
SCALARS radius float
LOOKUP_TABLE default
1.15567
