# vtk DataFile Version 3.0
Tree
ASCII
DATASET POLYDATA
POINTS 1582 float
162774 225274 273.8
162774 225274 10273.8
141774 225774 23773.8
135774 213962 30773.8
138274 219134 30563.8
131774 207874 54773.8
134764 213053 43637.4
152858 203774 58773.8
133149 210256 49651
113590 200774 51773.8
132187 208589 53237
132774 198774 73885.8
148661 204879 57386.2
157774 193774 78053.8
132504 203289 64387.4
111774 192006 72773.8
155040 197105 71853.4
167974 184774 70773.8
115762 194460 69109.4
100282 187774 62773.8
158028 193947 77028.6
167986 184774 89773.8
133099 199862 73065.8
135774 195262 91773.8
111949 191949 72318.2
100774 184062 80773.8
111826 191989 72637
117774 191942 84773.8
165399 185443 70645.4
174530 165774 67773.8
166667 185851 86188.2
177774 174774 88741.8
104126 186428 78237
87449.8 172774 70773.8
170979 171538 66819
171994 157774 53773.8
115832 192247 83605.8
118774 194002 106774
174442 178097 87975.8
179866 172774 105774
135612 196607 89522.6
139774 195998 111774
173453 166334 67927
179774 148774 72345.8
92452.6 176870 73012.6
81617.8 168774 85773.8
139611 196031 99725.8
153774 194014 106774
88897.4 173043 72195.8
79565.8 159774 72773.8
115313 192713 94818.2
104774 191194 105774
178091 151695 70372.6
179946 135774 66773.8
175958 158429 69247.4
182018 153774 85773.8
178546 172397 100245
183998 156774 110774
85735 171850 80924.6
85773.8 179270 99773.8
117143 194079 105075
115774 197774 124530
118541 195346 112806
129774 196006 122774
148392 194780 104095
149774 195998 117774
148701 195669 115621
144774 195998 128774
153049 193750 105622
165126 189774 106774
179241 141824 68141.4
183998 131774 79773.8
179734 137589 67184.2
178002 123774 54773.8
182689 157723 110487
183998 146774 118774
181118 154611 85167.4
183998 152774 97773.8
183291 152687 114299
183998 154774 129774
81829 161537 73177.8
77733.8 146774 76773.8
79289.8 152384 75407.4
82773.8 139594 64773.8
80254.6 155862 74560.2
75545.8 152774 90773.8
77597 154322 88945.4
77489.8 154774 102774
77815.4 156259 97947.4
79485.8 166774 110774
85204.6 177999 99169.8
83773.8 181090 113774
116101 197414 124059
112774 199886 143774
149452 195899 117128
159074 193774 128774
144188 196163 125850
130774 198002 140774
183358 148109 118871
182002 134774 135774
140164 196715 130327
145774 195394 148774
178916 173141 104774
177890 176774 118774
76161 153238 90225.4
79533.8 137774 94773.8
179696 128189 56666.2
185774 120774 37265.8
182951 144109 123942
182774 129594 121774
182515 139815 129385
183986 144774 140774
183427 142889 136446
180054 136774 145774
183699 145073 139547
183970 153774 147774
182155 136286 133857
179834 123774 131774
144091 195790 143240
134774 198002 155774
82079 141855 68775.4
86521.8 123774 66773.8
79187.4 147983 76387.4
81557.8 131774 79773.8
115872 197666 124388
96345.8 191774 133774
78242.6 154530 101746
81493.8 146774 115774
112832 197663 140438
106774 188774 157970
179709 136980 144843
174006 128774 155774
100418 191265 131117
87773.8 176774 132898
85376.6 129962 66074.6
89449.8 122774 56773.8
156889 193928 127869
162026 190774 144774
79738.2 150962 108199
81525.8 137774 107774
181273 131531 133065
175786 122774 144774
137613 197373 153930
137082 197774 166774
90699.8 178331 131241
83773.8 165774 129018
182047 130369 121348
179974 115774 117774
107479 191997 104636
103774 194002 118774
79561 139643 92478.2
83485.8 126774 91773.8
108591 191441 152710
115774 193546 164774
183589 151705 147127
181774 155774 159018
107319 189574 156392
99773.8 178882 156774
183786 154148 125131
181886 168774 130774
86716.2 124260 67035.8
90773.8 111774 70393.8
177518 176773 116394
173258 183774 128774
82871 140031 65094.6
85601.8 135774 54773.8
137283 197621 161893
145118 193774 167774
88670.6 124015 57745
91737.8 117774 45773.8
180596 120152 118846
177222 113774 125774
88907.4 117517 68849
93489.8 108774 58773.8
177070 124579 140256
171238 113774 141774
80846.6 142785 107935
84773.8 136774 117958
179653 116257 118257
175774 105774 117934
83934.6 127532 91719.4
89573.8 114774 90773.8
101534 181629 155240
93481.8 171774 146774
172607 115711 140400
169774 106774 134890
87280.2 169633 131060
87545.8 154774 136774
174533 129794 153102
166774 120234 157774
87466.2 159232 135060
84773.8 151594 128774
169723 123867 155999
163846 125774 169774
100302 179706 156314
101774 170086 163774
174164 129080 154972
173774 137774 165970
84413.4 136997 115930
89773.8 126774 122802
112685 191191 161267
115774 183190 176774
181464 154675 157733
176058 155774 172774
100861 176050 159149
96361.8 165774 155774
142767 194928 166009
140774 194094 180774
86528.6 121663 91284.2
91569.8 114774 103774
113859 188150 167159
107702 177774 169774
183855 153153 147580
182058 164774 142774
89355 117587 96424.2
94113.8 109774 96773.8
112791 199219 142773
122774 200002 151774
176491 107903 116905
171198 94773.8 109774
90551 116068 100393
88153.8 121774 108774
135049 197909 155666
124774 199986 162774
171649 114355 141362
163322 110774 149774
177828 156789 167929
175186 165774 175774
110287 180285 169911
110774 169774 177290
175120 180903 126401
175910 180774 142774
170067 108109 134595
166774 98773.8 125966
92686.2 112118 96669
96289.8 105774 87773.8
141122 195736 164775
152774 191774 160898
166877 121429 157709
156774 115538 163774
91748.6 112096 62602.6
97485.8 100774 65773.8
161119 117511 160326
156774 111538 157774
91821.4 114697 102759
97661.8 108774 110774
101718 170450 162855
103658 157774 168774
165143 126411 167875
161774 134006 182774
86351.4 153363 131775
87773.8 140774 130906
176253 179689 139473
179886 172774 150774
176119 155312 171703
170050 148774 182774
88309 131282 121663
95773.8 127578 135774
175978 163079 173421
171926 161774 184774
176013 180448 141783
169954 186774 147774
173790 162374 179551
169842 170774 184774
152497 192056 160673
161774 189386 156774
166872 99521 126433
163362 90773.8 117774
94343.8 109199 92577
102774 99573.8 94773.8
152691 191859 160831
157774 187774 167898
171093 96395.8 110096
164774 85561.8 102774
89681 127593 121888
93609.8 118774 119774
169197 93145.4 107899
171978 90773.8 97773.8
100245 102461 94115
104774 95773.8 84881.8
96957 102255 64217.4
104774 89517.8 60773.8
161973 130719 177979
154774 129518 185774
110502 171072 175547
109774 158774 179074
171090 150819 181469
165774 150774 194806
171963 184420 146797
169158 185774 155774
170514 167834 184232
164774 170774 193958
109691 160974 177523
107774 150774 174802
97500.6 109023 109030
107774 99129.8 113774
94691.8 129871 134835
99773.8 129774 145970
162156 133943 181936
164006 141774 188774
97613.4 108849 110251
102774 109658 124774
156249 188999 165778
150774 187774 176886
99538.2 97628.6 61825.4
100318 93773.8 53773.8
165284 86939 103038
159890 80773.8 94773.8
103254 92481.4 62346.2
109998 85773.8 68773.8
171816 92439.4 100338
177774 96741.8 90773.8
96215.4 130923 139373
95773.8 137578 145774
166955 169657 190262
157890 179774 189774
109749 159434 178609
113774 155774 187082
171929 91273.4 98543
168774 84773.8 87949.8
95449 128266 135492
99453.8 118774 130774
170870 184352 153221
172774 179774 165110
164927 85975 102853
153774 81561.8 107774
108349 153834 175618
113482 143774 180774
105862 101916 114216
112686 97773.8 120774
171898 181879 159641
177930 172774 160774
106356 89395.8 65303
112774 79573.8 59773.8
175072 94056.2 93652.2
176774 90773.8 81957.8
110639 99016.6 118806
112678 103774 132774
112750 155795 184493
116526 146774 189774
96488.2 135836 144967
99773.8 141774 156010
161470 82271.4 95745
160774 79581.8 85773.8
111942 146792 179227
111738 136774 174774
97555.8 124374 134566
102774 118774 137978
113467 155780 186305
119554 154774 195774
110849 82520.6 61432.6
120774 77537.8 67773.8
175618 90725.8 85465
172774 82225.8 77773.8
87521.8 156111 136259
93489.8 149774 146774
117002 79431 65364.2
121774 72773.8 61361.8
172511 180405 163469
165774 181774 173966
116227 147366 188364
119774 138578 190774
161413 79775 87066.2
163994 75773.8 75773.8
113732 102251 130575
118774 103774 140886
118710 141214 190051
119462 132774 182774
112072 98146.6 120183
121518 93773.8 123774
87119.4 146565 131306
91601.8 140774 139774
107946 151692 175047
105774 141774 167182
99661 141732 155312
101774 145774 161974
106836 142194 168395
107706 134774 164774
119029 134000 182863
118774 127506 174774
116858 103195 136968
111774 112226 144774
117766 143552 189410
126774 142774 202042
119087 94464.2 121695
127774 87773.8 117898
118917 103339 139598
126774 102774 145958
113567 110144 143674
114774 114774 151970
121903 103124 142015
130774 97461.8 138774
126660 89273 117151
132774 85449.8 112774
114122 112274 147490
107774 120330 149774
125519 103485 145672
132774 106774 156030
128494 88126.2 115837
137774 85773.8 121046
128094 105760 151132
125774 111518 158774
132742 85431.8 112879
138774 81561.8 108774
91719 152692 144214
95761.8 154774 154774
108103 135237 165191
112218 123774 160774
107825 134913 164899
105006 129774 155774
132764 85444.2 112805
127774 83601.8 102774
130069 84449.4 107388
135774 81493.8 98773.8
128934 98194.2 138809
134742 91773.8 132774
128901 83850.2 103523
128774 82773.8 93953.8
112737 125688 162187
118774 117510 160774
115886 122512 162728
123590 118774 168774
121955 120063 168147
126774 120774 175958
123099 119161 168586
132774 113706 168774
140269 220457 28776.6
143774 211986 34773.8
136524 215513 30711
127774 209978 36773.8
143247 214004 34414.6
146774 210062 43773.8
128194 210736 36438.6
121774 207942 40773.8
145716 211244 40966.2
138774 207918 56773.8
131897 208088 54312.6
124582 203774 58773.8
141348 208516 53113.8
143774 205774 61117.8
119049 204359 47861.8
114258 202774 45773.8
124737 203755 58235.4
116774 198774 61949.8
142717 205811 60452.6
142774 202774 67889.8
151599 204105 58357.4
159238 195774 66773.8
113865 200808 51079.4
106774 195774 54881.8
143179 203174 66729
145774 199774 73941.8
158530 196653 64473.8
163258 191774 65773.8
107916 195925 55059
104774 191998 58773.8
132871 199100 73639.8
123774 195774 75897.8
157850 193825 77746.2
150774 195986 80773.8
162106 189499 72206.2
[...]
CELL_DATA 1581
SCALARS radius float
LOOKUP_TABLE default
100
100
100
100
92.9635
92.9635
89.6332
89.6332
86.4222
86.4222
83.3262
83.3262
86.4222
86.4222
80.3411
80.3411
83.3262
83.3262
77.463
77.463
80.3411
80.3411
77.463
77.463
74.6879
74.6879
72.0123
72.0123
77.463
77.463
77.463
77.463
72.0123
72.0123
72.0123
72.0123
69.4326
69.4326
74.6879
74.6879
74.6879
74.6879
69.4326
69.4326
69.4326
69.4326
72.0123
72.0123
66.9452
66.9452
66.9452
66.9452
64.547
64.547
66.9452
66.9452
72.0123
72.0123
64.547
64.547
64.547
64.547
62.2346
62.2346
69.4326
69.4326
66.9452
66.9452
66.9452
66.9452
60.0051
60.0051
57.8555
57.8555
69.4326
69.4326
60.0051
60.0051
66.9452
66.9452
64.547
64.547
60.0051
60.0051
62.2346
62.2346
60.0051
60.0051
57.8555
57.8555
62.2346
62.2346
60.0051
60.0051
64.547
64.547
64.547
64.547
64.547
64.547
62.2346
62.2346
69.4326
69.4326
57.8555
57.8555
51.8578
51.8578
62.2346
62.2346
60.0051
60.0051
57.8555
57.8555
55.7829
55.7829
57.8555
57.8555
57.8555
57.8555
57.8555
57.8555
55.7829
55.7829
57.8555
57.8555
55.7829
55.7829
57.8555
57.8555
55.7829
55.7829
53.7845
53.7845
55.7829
55.7829
60.0051
60.0051
53.7845
53.7845
55.7829
55.7829
55.7829
55.7829
51.8578
51.8578
57.8555
57.8555
60.0051
60.0051
55.7829
55.7829
55.7829
55.7829
51.8578
51.8578
53.7845
53.7845
62.2346
62.2346
53.7845
53.7845
66.9452
66.9452
53.7845
53.7845
53.7845
53.7845
50
50
55.7829
55.7829
51.8578
51.8578
53.7845
53.7845
50
50
53.7845
53.7845
53.7845
53.7845
51.8578
51.8578
50
50
50
50
51.8578
51.8578
48.2088
48.2088
50
50
50
50
50
50
48.2088
48.2088
53.7845
53.7845
46.4818
46.4818
48.2088
48.2088
50
50
51.8578
51.8578
51.8578
51.8578
50
50
50
50
55.7829
55.7829
51.8578
51.8578
48.2088
48.2088
53.7845
53.7845
48.2088
48.2088
43.2111
43.2111
50
50
64.547
64.547
48.2088
48.2088
46.4818
46.4818
51.8578
51.8578
48.2088
48.2088
50
50
43.2111
43.2111
46.4818
46.4818
46.4818
46.4818
46.4818
46.4818
46.4818
46.4818
60.0051
60.0051
41.6631
41.6631
46.4818
46.4818
41.6631
41.6631
57.8555
57.8555
38.7315
38.7315
46.4818
46.4818
43.2111
43.2111
44.8166
44.8166
44.8166
44.8166
48.2088
48.2088
44.8166
44.8166
46.4818
46.4818
43.2111
43.2111
48.2088
48.2088
43.2111
43.2111
48.2088
48.2088
40.1706
40.1706
55.7829
55.7829
36.0062
36.0062
46.4818
46.4818
44.8166
44.8166
43.2111
43.2111
41.6631
41.6631
43.2111
43.2111
43.2111
43.2111
46.4818
46.4818
43.2111
43.2111
44.8166
44.8166
44.8166
44.8166
41.6631
41.6631
34.7163
34.7163
44.8166
44.8166
43.2111
43.2111
41.6631
41.6631
53.7845
53.7845
41.6631
41.6631
44.8166
44.8166
43.2111
43.2111
50
50
43.2111
43.2111
43.2111
43.2111
41.6631
41.6631
41.6631
41.6631
40.1706
40.1706
41.6631
41.6631
43.2111
43.2111
40.1706
40.1706
40.1706
40.1706
41.6631
41.6631
41.6631
41.6631
46.4818
46.4818
38.7315
38.7315
48.2088
48.2088
40.1706
40.1706
40.1706
40.1706
40.1706
40.1706
37.344
37.344
40.1706
40.1706
44.8166
44.8166
43.2111
43.2111
37.344
37.344
41.6631
41.6631
36.0062
36.0062
38.7315
38.7315
38.7315
38.7315
38.7315
38.7315
37.344
37.344
37.344
37.344
36.0062
36.0062
37.344
37.344
34.7163
34.7163
34.7163
34.7163
36.0062
36.0062
33.4726
33.4726
34.7163
34.7163
43.2111
43.2111
40.1706
40.1706
38.7315
38.7315
33.4726
33.4726
32.2735
32.2735
34.7163
34.7163
31.1173
31.1173
38.7315
38.7315
37.344
37.344
36.0062
36.0062
34.7163
34.7163
96.4176
96.4176
89.6332
89.6332
89.6332
89.6332
80.3411
80.3411
86.4222
86.4222
80.3411
80.3411
80.3411
80.3411
83.3262
83.3262
74.6879
74.6879
77.463
77.463
83.3262
83.3262
77.463
77.463
72.0123
72.0123
80.3411
80.3411
74.6879
74.6879
74.6879
74.6879
77.463
77.463
80.3411
80.3411
69.4326
69.4326
72.0123
72.0123
66.9452
66.9452
74.6879
74.6879
69.4326
69.4326
69.4326
69.4326
74.6879
74.6879
74.6879
74.6879
72.0123
72.0123
64.547
64.547
72.0123
72.0123
64.547
64.547
72.0123
72.0123
66.9452
66.9452
72.0123
72.0123
69.4326
69.4326
69.4326
69.4326
62.2346
62.2346
69.4326
69.4326
62.2346
62.2346
62.2346
62.2346
64.547
64.547
62.2346
62.2346
69.4326
69.4326
62.2346
62.2346
60.0051
60.0051
66.9452
66.9452
55.7829
55.7829
66.9452
66.9452
60.0051
60.0051
69.4326
69.4326
62.2346
62.2346
62.2346
62.2346
66.9452
66.9452
60.0051
60.0051
66.9452
66.9452
64.547
64.547
57.8555
57.8555
57.8555
57.8555
57.8555
57.8555
55.7829
55.7829
55.7829
55.7829
62.2346
62.2346
57.8555
57.8555
74.6879
74.6879
53.7845
53.7845
53.7845
53.7845
57.8555
57.8555
62.2346
62.2346
66.9452
66.9452
62.2346
62.2346
55.7829
55.7829
60.0051
60.0051
60.0051
60.0051
55.7829
55.7829
57.8555
57.8555
62.2346
62.2346
62.2346
62.2346
50
50
64.547
64.547
53.7845
53.7845
60.0051
60.0051
60.0051
60.0051
53.7845
53.7845
57.8555
57.8555
55.7829
55.7829
60.0051
60.0051
53.7845
53.7845
60.0051
60.0051
57.8555
57.8555
51.8578
51.8578
50
50
55.7829
55.7829
50
50
62.2346
62.2346
53.7845
53.7845
48.2088
48.2088
55.7829
55.7829
51.8578
51.8578
53.7845
53.7845
50
50
51.8578
51.8578
51.8578
51.8578
55.7829
55.7829
50
50
50
50
55.7829
55.7829
53.7845
53.7845
53.7845
53.7845
48.2088
48.2088
57.8555
57.8555
46.4818
46.4818
51.8578
51.8578
57.8555
57.8555
51.8578
51.8578
51.8578
51.8578
48.2088
48.2088
51.8578
51.8578
48.2088
48.2088
51.8578
51.8578
46.4818
46.4818
51.8578
51.8578
50
50
50
50
53.7845
53.7845
48.2088
48.2088
60.0051
60.0051
46.4818
46.4818
51.8578
51.8578
50
50
48.2088
48.2088
48.2088
48.2088
46.4818
46.4818
46.4818
46.4818
50
50
60.0051
60.0051
44.8166
44.8166
51.8578
51.8578
55.7829
55.7829
48.2088
48.2088
46.4818
46.4818
50
50
57.8555
57.8555
44.8166
44.8166
50
50
48.2088
48.2088
46.4818
46.4818
50
50
44.8166
44.8166
46.4818
46.4818
48.2088
48.2088
50
50
50
50
48.2088
48.2088
48.2088
48.2088
44.8166
44.8166
44.8166
44.8166
44.8166
44.8166
48.2088
48.2088
43.2111
43.2111
44.8166
44.8166
46.4818
46.4818
48.2088
48.2088
46.4818
46.4818
44.8166
44.8166
44.8166
44.8166
44.8166
44.8166
53.7845
53.7845
44.8166
44.8166
46.4818
46.4818
50
50
43.2111
43.2111
62.2346
62.2346
43.2111
43.2111
44.8166
44.8166
43.2111
43.2111
46.4818
46.4818
43.2111
43.2111
44.8166
44.8166
37.344
37.344
44.8166
44.8166
40.1706
40.1706
43.2111
43.2111
41.6631
41.6631
57.8555
57.8555
41.6631
41.6631
44.8166
44.8166
40.1706
40.1706
43.2111
43.2111
40.1706
40.1706
41.6631
41.6631
43.2111
43.2111
41.6631
41.6631
41.6631
41.6631
41.6631
41.6631
40.1706
40.1706
41.6631
41.6631
32.2735
32.2735
33.4726
33.4726
40.1706
40.1706
38.7315
38.7315
38.7315
38.7315
51.8578
51.8578
48.2088
48.2088
38.7315
38.7315
46.4818
46.4818
32.2735
32.2735
41.6631
41.6631
40.1706
40.1706
38.7315
38.7315
38.7315
38.7315
50
50
38.7315
38.7315
41.6631
41.6631
44.8166
44.8166
38.7315
38.7315
41.6631
41.6631
40.1706
40.1706
38.7315
38.7315
37.344
37.344
36.0062
36.0062
46.4818
46.4818
37.344
37.344
34.7163
34.7163
36.0062
36.0062
34.7163
34.7163
37.344
37.344
44.8166
44.8166
41.6631
41.6631
43.2111
43.2111
33.4726
33.4726
36.0062
36.0062
44.8166
44.8166
34.7163
34.7163
37.344
37.344
36.0062
36.0062
33.4726
33.4726
32.2735
32.2735
36.0062
36.0062
43.2111
43.2111
33.4726
33.4726
33.4726
33.4726
31.1173
31.1173
31.1173
31.1173
32.2735
32.2735
33.4726
33.4726
92.9635
92.9635
86.4222
86.4222
83.3262
83.3262
83.3262
83.3262
77.463
77.463
80.3411
80.3411
77.463
77.463
74.6879
74.6879
74.6879
74.6879
80.3411
80.3411
72.0123
72.0123
72.0123
72.0123
74.6879
74.6879
69.4326
69.4326
74.6879
74.6879
62.2346
62.2346
77.463
77.463
69.4326
69.4326
72.0123
72.0123
72.0123
72.0123
66.9452
66.9452
60.0051
60.0051
69.4326
69.4326
72.0123
72.0123
77.463
77.463
66.9452
66.9452
64.547
64.547
74.6879
74.6879
60.0051
60.0051
66.9452
66.9452
69.4326
69.4326
57.8555
57.8555
62.2346
62.2346
66.9452
66.9452
62.2346
62.2346
66.9452
66.9452
60.0051
60.0051
62.2346
62.2346
64.547
64.547
62.2346
62.2346
66.9452
66.9452
64.547
64.547
57.8555
57.8555
64.547
64.547
62.2346
62.2346
64.547
64.547
60.0051
60.0051
60.0051
60.0051
60.0051
60.0051
66.9452
66.9452
60.0051
60.0051
53.7845
53.7845
55.7829
55.7829
53.7845
53.7845
55.7829
55.7829
60.0051
60.0051
62.2346
62.2346
53.7845
53.7845
53.7845
53.7845
57.8555
57.8555
51.8578
51.8578
64.547
64.547
57.8555
57.8555
55.7829
55.7829
64.547
64.547
53.7845
53.7845
51.8578
51.8578
55.7829
55.7829
57.8555
57.8555
60.0051
60.0051
57.8555
57.8555
64.547
64.547
55.7829
55.7829
60.0051
60.0051
48.2088
48.2088
60.0051
60.0051
55.7829
55.7829
60.0051
60.0051
64.547
64.547
60.0051
60.0051
55.7829
55.7829
57.8555
57.8555
51.8578
51.8578
51.8578
51.8578
50
50
48.2088
48.2088
46.4818
46.4818
53.7845
53.7845
46.4818
46.4818
53.7845
53.7845
64.547
64.547
51.8578
51.8578
50
50
50
50
48.2088
48.2088
53.7845
53.7845
44.8166
44.8166
48.2088
48.2088
51.8578
51.8578
46.4818
46.4818
53.7845
53.7845
53.7845
53.7845
51.8578
51.8578
53.7845
53.7845
50
50
53.7845
53.7845
55.7829
55.7829
46.4818
46.4818
51.8578
51.8578
50
50
48.2088
48.2088
48.2088
48.2088
48.2088
48.2088
50
50
50
50
55.7829
55.7829
46.4818
46.4818
50
50
44.8166
44.8166
51.8578
51.8578
51.8578
51.8578
50
50
46.4818
46.4818
43.2111
43.2111
57.8555
57.8555
48.2088
48.2088
48.2088
48.2088
48.2088
48.2088
48.2088
48.2088
44.8166
44.8166
43.2111
43.2111
50
50
44.8166
44.8166
46.4818
46.4818
44.8166
44.8166
50
50
48.2088
48.2088
46.4818
46.4818
46.4818
46.4818
46.4818
46.4818
48.2088
48.2088
44.8166
44.8166
50
50
44.8166
44.8166
43.2111
43.2111
55.7829
55.7829
46.4818
46.4818
43.2111
43.2111
55.7829
55.7829
46.4818
46.4818
48.2088
48.2088
43.2111
43.2111
60.0051
60.0051
44.8166
44.8166
41.6631
41.6631
48.2088
48.2088
46.4818
46.4818
50
50
46.4818
46.4818
50
50
37.344
37.344
41.6631
41.6631
46.4818
46.4818
44.8166
44.8166
41.6631
41.6631
44.8166
44.8166
41.6631
41.6631
51.8578
51.8578
38.7315
38.7315
51.8578
51.8578
38.7315
38.7315
53.7845
53.7845
34.7163
34.7163
50
50
41.6631
41.6631
37.344
37.344
43.2111
43.2111
36.0062
36.0062
40.1706
40.1706
40.1706
40.1706
38.7315
38.7315
40.1706
40.1706
40.1706
40.1706
40.1706
40.1706
38.7315
38.7315
38.7315
38.7315
37.344
37.344
44.8166
44.8166
41.6631
41.6631
40.1706
40.1706
46.4818
46.4818
38.7315
38.7315
37.344
37.344
40.1706
40.1706
100
96.4176
96.4176
92.9635
92.9635
86.4222
86.4222
89.6332
89.6332
86.4222
86.4222
83.3262
83.3262
83.3262
83.3262
80.3411
80.3411
77.463
77.463
80.3411
80.3411
74.6879
74.6879
77.463
77.463
72.0123
72.0123
77.463
77.463
74.6879
74.6879
69.4326
69.4326
74.6879
74.6879
72.0123
72.0123
72.0123
72.0123
69.4326
69.4326
66.9452
66.9452
69.4326
69.4326
66.9452
66.9452
64.547
64.547
66.9452
66.9452
69.4326
69.4326
64.547
64.547
66.9452
66.9452
64.547
64.547
62.2346
62.2346
60.0051
60.0051
72.0123
72.0123
64.547
64.547
62.2346
62.2346
62.2346
62.2346
60.0051
60.0051
57.8555
57.8555
69.4326
69.4326
57.8555
57.8555
62.2346
62.2346
64.547
64.547
55.7829
55.7829
53.7845
53.7845
53.7845
53.7845
55.7829
55.7829
60.0051
60.0051
51.8578
51.8578
62.2346
62.2346
53.7845
53.7845
57.8555
57.8555
51.8578
51.8578
57.8555
57.8555
53.7845
53.7845
60.0051
60.0051
57.8555
57.8555
51.8578
51.8578
50
50
48.2088
48.2088
55.7829
55.7829
51.8578
51.8578
50
50
50
50
46.4818
46.4818
53.7845
53.7845
48.2088
48.2088
48.2088
48.2088
44.8166
44.8166
43.2111
43.2111
55.7829
55.7829
50
50
51.8578
51.8578
46.4818
46.4818
48.2088
48.2088
43.2111
43.2111
44.8166
44.8166
41.6631
41.6631
40.1706
40.1706
43.2111
43.2111
41.6631
41.6631
46.4818
46.4818
41.6631
41.6631
46.4818
46.4818
41.6631
41.6631
40.1706
40.1706
41.6631
41.6631
38.7315
38.7315
40.1706
40.1706
43.2111
43.2111
44.8166
44.8166
44.8166
44.8166
40.1706
40.1706
38.7315
38.7315
40.1706
40.1706
38.7315
38.7315
37.344
37.344
37.344
37.344
43.2111
43.2111
44.8166
44.8166
43.2111
43.2111
38.7315
38.7315
36.0062
36.0062
37.344
37.344
36.0062
36.0062
41.6631
41.6631
34.7163
34.7163
36.0062
36.0062
33.4726
33.4726
33.4726
33.4726
34.7163
34.7163
32.2735
32.2735
40.1706
40.1706
31.1173
31.1173
32.2735
32.2735
33.4726
33.4726
30.0026
30.0026
38.7315
38.7315
31.1173
31.1173
30.0026
30.0026
30.0026
30.0026
32.2735
32.2735
28.9278
28.9278
37.344
37.344
28.9278
28.9278
31.1173
31.1173
36.0062
36.0062
27.8914
27.8914
80.3411
80.3411
77.463
77.463
74.6879
74.6879
83.3262
83.3262
80.3411
80.3411
80.3411
80.3411
80.3411
80.3411
77.463
77.463
77.463
77.463
83.3262
83.3262
80.3411
80.3411
74.6879
74.6879
77.463
77.463
