# vtk DataFile Version 3.0
Tree
ASCII
DATASET POLYDATA
POINTS 1582 float
162774 225274 273.8
162774 225274 10273.8
141774 225774 23773.8
135774 213218 31773.8
137934 217874 31553.8
132774 207914 54773.8
134322 210902 47807.8
148774 203774 62961.8
133610 209527 51012.2
114774 200774 53953.8
133025 208398 53645.4
125774 197774 71981.8
146949 203091 62259.8
158774 193190 77773.8
118001 201055 55512.2
104774 191774 62881.8
155227 196160 73119.8
169782 182774 68773.8
125771 199550 68401.8
111774 189974 81773.8
158544 193429 77732.6
168026 185774 91773.8
125773 198307 70907.8
136338 195774 92773.8
106665 192628 60737
92773.8 179978 61773.8
112613 191335 77774.6
98773.8 183890 82773.8
166551 183868 69791
174774 164774 67657.8
112025 190382 80574.2
118774 193774 100654
171515 170477 66600.6
172054 157774 54773.8
165181 188070 87561.4
179966 168774 87773.8
171217 180719 90028.6
179782 172774 104774
100551 184231 81424.2
84773.8 171970 82773.8
133919 196647 91096.6
139774 195998 111774
174073 164986 67859.4
179774 148774 72345.8
89735.8 174861 80761.4
80773.8 161966 71773.8
138748 196051 100529
153774 194014 106774
115857 193451 99574.6
117774 195994 115774
178235 151347 70214.6
179774 135890 65773.8
177351 173455 99753
183830 157774 105774
97305.8 181420 81225.4
86217.8 178774 97773.8
112221 191897 92832.2
101650 191774 109774
135612 196036 92270.6
149970 194774 90773.8
179312 149546 71706.2
183942 136774 79773.8
140477 196012 110697
146774 195998 125774
179407 137047 65439.4
179782 126774 60773.8
179923 166745 100541
183230 155774 93773.8
182173 161072 105344
183998 153774 118774
83029 163321 73920.6
79597.8 146774 69773.8
85041 166783 75972.6
77493.8 155774 84773.8
79757.8 159077 82133.4
75773.8 160774 100790
151963 193119 105956
168774 187906 112774
116167 195542 114614
114774 198014 134774
102701 190989 105479
88773.8 185934 111774
144885 196002 121251
135774 197218 133774
179601 128288 61053.4
179218 117774 53773.8
179543 130915 62369.4
175402 129774 46773.8
182445 156916 95881
183998 142774 95773.8
183213 154672 113139
183998 137774 119774
138507 196853 130017
144774 195998 144774
146207 195999 124417
159970 192774 125774
77287.8 160129 93700.2
78353.8 145774 104774
183763 142843 117783
183774 138774 134894
176644 130116 51452.6
183774 121774 39257.8
179053 172978 103267
177230 177774 116774
183763 154043 117083
183998 158774 139774
78173 156765 83981.8
79017.8 139774 83773.8
183488 139389 125591
181774 128346 130774
81351.4 148721 70333.4
85505.8 128774 65773.8
183133 138149 133021
179914 132774 144774
114310 196893 131737
108774 194774 151966
94622.6 187525 111072
87773.8 181774 126094
77975.8 154215 100386
79537.8 153774 113774
183582 138587 134332
183986 146774 142774
141601 196574 141569
137774 197978 158774
114867 196488 126601
98997.8 191774 137774
90598.2 183587 117548
82997.8 173774 119774
79069.4 153906 109757
81505.8 143774 114774
155841 193741 125367
163774 191186 141774
85091.4 133883 64433
88773.8 124226 55773.8
177777 176335 112722
181886 168774 123774
136031 197200 133719
130774 198002 142774
79315.4 142653 84669.8
82773.8 127574 89773.8
109429 193743 147317
102774 183326 157774
179643 133385 143576
171774 126774 158886
176817 177905 115503
171978 184774 124774
183597 145683 142455
181986 154774 156774
89214.2 181019 123269
87773.8 169774 137050
182288 131659 129219
178102 116774 122774
85894.2 129151 65477.4
89553.8 115774 67773.8
108970 194465 150571
113994 191774 164774
81127 145249 112999
83497.8 134774 111774
181928 129340 130307
173842 117774 141774
88321 174047 131813
84773.8 161774 129974
136250 198107 156608
130774 199522 168774
89188.6 177567 129550
91773.8 177774 141890
179833 132957 144415
177950 137774 156774
144451 195841 143699
154026 192774 148774
88591 124390 57424.6
92329.8 113774 51773.8
134169 198645 161231
141970 194774 172774
82949.4 143463 66421.8
85553.8 139774 53773.8
178375 117311 123383
175862 107774 119774
83738.6 129037 89985.4
88117.8 117774 94773.8
104063 183425 155048
99773.8 171774 159990
176268 121243 138334
171202 107774 132774
89140.2 118126 66313.8
93657.8 106774 61773.8
173199 127553 154457
166774 119590 156774
86401.8 164949 131429
87533.8 153774 135774
171661 127343 158011
165774 128002 168774
112885 190675 163181
115774 184774 175318
176990 135992 155561
174006 137774 164774
109255 194017 148554
121774 199998 156774
181691 152459 155033
176774 155774 171954
82786.6 137917 112141
89477.8 130774 123774
173430 182713 121993
177226 179774 137774
87953 119138 92681.4
92533.8 109774 92773.8
113460 186714 168772
109774 177134 172774
175968 108809 119784
171774 96773.8 112886
88068.2 118183 94146.2
92253.8 113774 103774
101061 175269 158507
93661.8 166774 150774
174343 116125 136221
165974 108774 142774
89659 116507 97804.6
87773.8 121774 108050
137317 198017 158124
148774 193774 158806
178643 153089 164653
175026 146774 171774
89429.8 116479 67335.8
95573.8 104774 77773.8
139836 195597 171337
141774 193186 184774
177305 155954 169793
175890 163774 174774
100160 172822 159545
102774 161774 165978
183381 159879 136288
181998 166774 146774
166891 128352 167408
162402 131774 179774
91267.8 114813 101505
97773.8 105990 100774
174137 102369 114895
175774 99773.8 106050
92984.6 108859 63559.4
97561.8 99773.8 65773.8
167669 120621 155728
160774 111598 153774
92170.6 111433 92049
98773.8 103562 87773.8
175466 181267 134493
171978 184774 144774
167042 119899 156460
158442 117774 165774
86399.8 134059 118423
87773.8 140774 130906
175894 108084 119777
167774 98281.8 123774
89141.8 131644 123327
94773.8 128774 133958
172041 97752.2 112707
167774 89773.8 106582
176933 155828 171306
170050 151774 184774
111451 179036 172633
112534 166774 181774
172115 152990 180733
167774 141774 181970
175755 160206 174197
169774 166774 188794
152525 193127 148524
161774 189386 156774
171987 166526 181284
169774 171970 183774
141330 195021 172343
152774 188774 169954
96606.6 106276 90592.2
103574 98773.8 94773.8
91957.8 114085 103093
101998 107774 118774
102844 164197 165612
108314 157774 175774
175071 99494.6 107139
173906 92773.8 96773.8
89377 131035 123640
93773.8 118774 120882
181797 166032 145203
177898 174774 155774
101483 101025 93519.4
107774 94277.8 86773.8
171290 109093 133565
165774 101090 131774
99081 109003 112586
106262 100774 113774
97109.4 101133 64313.8
105774 86773.8 60881.8
167763 98812.2 123126
160774 91773.8 124886
93811.8 130252 133079
97773.8 130774 142970
167946 91083 108262
160774 83737.8 106774
106937 158388 173030
109030 149774 175774
167825 90166.6 107086
165774 84257.8 95773.8
170255 152394 184533
163994 151774 197774
177399 174489 154357
172774 181250 159774
169783 169726 183717
161774 175774 192434
108283 157898 175714
112326 156774 183774
102947 99449 94397.4
108314 95773.8 104774
144763 193147 171626
149234 187774 179774
95872.2 103451 64087.8
99553.8 95773.8 52773.8
162584 85725.8 106035
155774 79573.8 97773.8
110466 157291 180066
113486 148774 182774
105887 96301.8 88797.4
103662 94773.8 76773.8
148585 189127 176782
155774 184006 178774
104107 103243 113417
110774 101662 124774
177748 174688 155349
175882 174774 165774
174482 94028.2 97628.6
175774 88773.8 82889.8
108241 102263 120458
105774 109122 129774
165179 84700.2 96528.6
161890 80773.8 88773.8
104975 89646.2 62773.4
116774 79597.8 67773.8
96148.6 132089 140089
98333.8 141774 152774
161377 174421 191031
153774 177882 196774
112469 150355 181334
113774 138774 179258
105880 108453 128099
101774 117570 135774
112149 156576 183325
116774 153774 191954
114008 81486.6 65583.8
119774 73709.8 61773.8
173553 179097 159302
166774 182774 169946
110525 101936 124334
116774 101774 134886
169743 181459 163653
163290 186774 163774
96542.2 137815 145465
93497.8 148774 146774
175464 88355 84186.2
175774 82773.8 74885.8
113181 149248 182342
117722 141774 189774
175581 86234.2 80651.8
165966 77773.8 77773.8
110699 101744 124642
119518 96773.8 126774
112793 143054 178760
110774 133774 169326
111541 137300 172911
104342 139774 162774
118163 143614 189124
122774 139570 194774
114307 102811 132187
114774 108774 141986
117854 142326 189579
120774 131598 184774
119547 142401 190819
121774 146774 198862
119559 134087 184631
119774 128226 178774
111004 134832 170401
115774 126774 170890
170214 80431.8 77627
166774 70773.8 67885.8
155138 184869 178871
163774 179774 181966
117281 97673.4 125188
125586 90773.8 120774
114634 106985 139046
122774 104774 145950
116034 102085 134076
124774 97545.8 135774
102795 162501 165868
103654 149774 166774
114982 108421 141881
116774 112774 151946
125045 91309.8 120485
130774 86773.8 115958
114836 108668 141954
108254 116774 145774
122409 105361 145371
130774 104346 151774
87013 158915 133775
90773.8 157774 143970
110911 114357 145494
110774 119774 153326
128264 104651 149853
128774 109774 159138
130162 87350.6 116037
136774 82353.8 109774
97866.2 130885 142733
104354 126774 151774
130590 86947 115981
141774 85549.8 120774
125424 90934.6 120687
133774 89597.8 126774
95881.4 169322 153094
96773.8 155774 155954
114343 129191 170743
114534 121774 162774
133204 85052.2 113156
129594 82773.8 99773.8
107077 138834 166626
105774 131774 159958
131828 83151 103897
136530 79773.8 95773.8
123674 98508.2 135735
133774 95665.8 138774
114477 123999 165165
122774 116774 163982
117629 121253 164715
124774 119706 172774
122093 117922 164712
130774 113774 167366
140095 219815 29281.8
143774 211986 34773.8
136422 214615 31707.8
126774 209890 34773.8
142629 214696 34251.4
144790 211774 44773.8
128959 210902 34925.8
123774 208006 41773.8
144970 211635 44208.6
147286 208774 51773.8
147521 208849 50760.6
150774 205774 56801.8
124821 205219 52518.6
118774 204774 47949.8
148227 203569 62751.4
154858 201774 60773.8
132849 208059 54435.4
137774 204010 64773.8
115742 200858 54421.4
111774 200774 47157.8
120047 202304 54614.2
116774 196774 65957.8
136164 204527 63102.2
135774 199898 72773.8
152868 202312 61367
159774 195266 64773.8
112787 197179 57915.8
106310 195774 52773.8
135891 201287 69872.2
144774 199774 74793.8
[...]
CELL_DATA 1581
SCALARS radius float
LOOKUP_TABLE default
100
100
100
100
92.9635
92.9635
89.6332
89.6332
86.4222
86.4222
83.3262
83.3262
86.4222
86.4222
77.463
77.463
83.3262
83.3262
80.3411
80.3411
80.3411
80.3411
77.463
77.463
69.4326
69.4326
77.463
77.463
77.463
77.463
74.6879
74.6879
74.6879
74.6879
77.463
77.463
74.6879
74.6879
74.6879
74.6879
74.6879
74.6879
72.0123
72.0123
69.4326
69.4326
72.0123
72.0123
69.4326
69.4326
69.4326
69.4326
72.0123
72.0123
72.0123
72.0123
72.0123
72.0123
72.0123
72.0123
66.9452
66.9452
69.4326
69.4326
64.547
64.547
69.4326
69.4326
66.9452
66.9452
64.547
64.547
66.9452
66.9452
64.547
64.547
64.547
64.547
66.9452
66.9452
66.9452
66.9452
66.9452
66.9452
60.0051
60.0051
62.2346
62.2346
66.9452
66.9452
64.547
64.547
64.547
64.547
64.547
64.547
62.2346
62.2346
62.2346
62.2346
60.0051
60.0051
69.4326
69.4326
62.2346
62.2346
62.2346
62.2346
60.0051
60.0051
60.0051
60.0051
57.8555
57.8555
62.2346
62.2346
64.547
64.547
60.0051
60.0051
55.7829
55.7829
62.2346
62.2346
64.547
64.547
60.0051
60.0051
57.8555
57.8555
60.0051
60.0051
55.7829
55.7829
64.547
64.547
62.2346
62.2346
60.0051
60.0051
60.0051
60.0051
53.7845
53.7845
62.2346
62.2346
51.8578
51.8578
57.8555
57.8555
57.8555
57.8555
53.7845
53.7845
55.7829
55.7829
55.7829
55.7829
55.7829
55.7829
53.7845
53.7845
60.0051
60.0051
55.7829
55.7829
51.8578
51.8578
60.0051
60.0051
50
50
57.8555
57.8555
57.8555
57.8555
55.7829
55.7829
57.8555
57.8555
57.8555
57.8555
50
50
51.8578
51.8578
51.8578
51.8578
51.8578
51.8578
50
50
50
50
48.2088
48.2088
57.8555
57.8555
50
50
53.7845
53.7845
60.0051
60.0051
55.7829
55.7829
48.2088
48.2088
53.7845
53.7845
53.7845
53.7845
55.7829
55.7829
48.2088
48.2088
51.8578
51.8578
57.8555
57.8555
46.4818
46.4818
48.2088
48.2088
53.7845
53.7845
44.8166
44.8166
53.7845
53.7845
55.7829
55.7829
46.4818
46.4818
50
50
51.8578
51.8578
48.2088
48.2088
48.2088
48.2088
51.8578
51.8578
55.7829
55.7829
46.4818
46.4818
50
50
51.8578
51.8578
48.2088
48.2088
50
50
43.2111
43.2111
46.4818
46.4818
41.6631
41.6631
43.2111
43.2111
55.7829
55.7829
40.1706
40.1706
51.8578
51.8578
50
50
48.2088
48.2088
51.8578
51.8578
50
50
46.4818
46.4818
53.7845
53.7845
48.2088
48.2088
44.8166
44.8166
46.4818
46.4818
44.8166
44.8166
48.2088
48.2088
46.4818
46.4818
46.4818
46.4818
48.2088
48.2088
44.8166
44.8166
38.7315
38.7315
51.8578
51.8578
38.7315
38.7315
46.4818
46.4818
46.4818
46.4818
50
50
46.4818
46.4818
44.8166
44.8166
44.8166
44.8166
46.4818
46.4818
46.4818
46.4818
44.8166
44.8166
50
50
44.8166
44.8166
43.2111
43.2111
43.2111
43.2111
40.1706
40.1706
44.8166
44.8166
36.0062
36.0062
43.2111
43.2111
40.1706
40.1706
43.2111
43.2111
36.0062
36.0062
50
50
41.6631
41.6631
48.2088
48.2088
41.6631
41.6631
41.6631
41.6631
41.6631
41.6631
40.1706
40.1706
40.1706
40.1706
41.6631
41.6631
40.1706
40.1706
38.7315
38.7315
40.1706
40.1706
37.344
37.344
37.344
37.344
36.0062
36.0062
38.7315
38.7315
38.7315
38.7315
43.2111
43.2111
37.344
37.344
38.7315
38.7315
38.7315
38.7315
48.2088
48.2088
37.344
37.344
34.7163
34.7163
36.0062
36.0062
36.0062
36.0062
50
50
34.7163
34.7163
33.4726
33.4726
33.4726
33.4726
43.2111
43.2111
32.2735
32.2735
33.4726
33.4726
53.7845
53.7845
37.344
37.344
32.2735
32.2735
38.7315
38.7315
31.1173
31.1173
37.344
37.344
34.7163
34.7163
33.4726
33.4726
32.2735
32.2735
96.4176
96.4176
89.6332
89.6332
89.6332
89.6332
83.3262
83.3262
86.4222
86.4222
83.3262
83.3262
83.3262
83.3262
83.3262
83.3262
80.3411
80.3411
74.6879
74.6879
80.3411
80.3411
74.6879
74.6879
80.3411
80.3411
74.6879
74.6879
69.4326
69.4326
66.9452
66.9452
74.6879
74.6879
72.0123
72.0123
69.4326
69.4326
64.547
64.547
74.6879
74.6879
80.3411
80.3411
74.6879
74.6879
69.4326
69.4326
66.9452
66.9452
72.0123
72.0123
66.9452
66.9452
72.0123
72.0123
69.4326
69.4326
64.547
64.547
62.2346
62.2346
69.4326
69.4326
66.9452
66.9452
72.0123
72.0123
72.0123
72.0123
60.0051
60.0051
69.4326
69.4326
64.547
64.547
62.2346
62.2346
66.9452
66.9452
66.9452
66.9452
64.547
64.547
62.2346
62.2346
64.547
64.547
66.9452
66.9452
66.9452
66.9452
69.4326
69.4326
66.9452
66.9452
60.0051
60.0051
60.0051
60.0051
64.547
64.547
69.4326
69.4326
66.9452
66.9452
64.547
64.547
66.9452
66.9452
64.547
64.547
64.547
64.547
64.547
64.547
57.8555
57.8555
60.0051
60.0051
62.2346
62.2346
66.9452
66.9452
66.9452
66.9452
62.2346
62.2346
62.2346
62.2346
55.7829
55.7829
60.0051
60.0051
62.2346
62.2346
60.0051
60.0051
64.547
64.547
57.8555
57.8555
62.2346
62.2346
60.0051
60.0051
62.2346
62.2346
60.0051
60.0051
66.9452
66.9452
57.8555
57.8555
60.0051
60.0051
57.8555
57.8555
62.2346
62.2346
57.8555
57.8555
55.7829
55.7829
60.0051
60.0051
55.7829
55.7829
57.8555
57.8555
57.8555
57.8555
55.7829
55.7829
57.8555
57.8555
53.7845
53.7845
55.7829
55.7829
57.8555
57.8555
57.8555
57.8555
57.8555
57.8555
57.8555
57.8555
60.0051
60.0051
62.2346
62.2346
53.7845
53.7845
55.7829
55.7829
57.8555
57.8555
55.7829
55.7829
60.0051
60.0051
55.7829
55.7829
55.7829
55.7829
57.8555
57.8555
53.7845
53.7845
55.7829
55.7829
53.7845
53.7845
57.8555
57.8555
53.7845
53.7845
51.8578
51.8578
51.8578
51.8578
53.7845
53.7845
51.8578
51.8578
53.7845
53.7845
50
50
46.4818
46.4818
53.7845
53.7845
51.8578
51.8578
53.7845
53.7845
60.0051
60.0051
50
50
55.7829
55.7829
48.2088
48.2088
48.2088
48.2088
50
50
50
50
57.8555
57.8555
51.8578
51.8578
55.7829
55.7829
50
50
46.4818
46.4818
55.7829
55.7829
44.8166
44.8166
55.7829
55.7829
48.2088
48.2088
51.8578
51.8578
51.8578
51.8578
48.2088
48.2088
51.8578
51.8578
46.4818
46.4818
48.2088
48.2088
53.7845
53.7845
46.4818
46.4818
50
50
48.2088
48.2088
46.4818
46.4818
44.8166
44.8166
50
50
44.8166
44.8166
46.4818
46.4818
57.8555
57.8555
46.4818
46.4818
51.8578
51.8578
46.4818
46.4818
44.8166
44.8166
44.8166
44.8166
50
50
44.8166
44.8166
43.2111
43.2111
46.4818
46.4818
50
50
48.2088
48.2088
53.7845
53.7845
44.8166
44.8166
46.4818
46.4818
44.8166
44.8166
50
50
53.7845
53.7845
48.2088
48.2088
48.2088
48.2088
48.2088
48.2088
48.2088
48.2088
43.2111
43.2111
41.6631
41.6631
46.4818
46.4818
44.8166
44.8166
41.6631
41.6631
46.4818
46.4818
50
50
38.7315
38.7315
53.7845
53.7845
40.1706
40.1706
51.8578
51.8578
37.344
37.344
55.7829
55.7829
44.8166
44.8166
51.8578
51.8578
44.8166
44.8166
41.6631
41.6631
43.2111
43.2111
41.6631
41.6631
46.4818
46.4818
41.6631
41.6631
41.6631
41.6631
44.8166
44.8166
43.2111
43.2111
43.2111
43.2111
43.2111
43.2111
41.6631
41.6631
44.8166
44.8166
44.8166
44.8166
40.1706
40.1706
37.344
37.344
41.6631
41.6631
46.4818
46.4818
48.2088
48.2088
51.8578
51.8578
40.1706
40.1706
41.6631
41.6631
34.7163
34.7163
37.344
37.344
37.344
37.344
38.7315
38.7315
40.1706
40.1706
43.2111
43.2111
40.1706
40.1706
37.344
37.344
36.0062
36.0062
38.7315
38.7315
44.8166
44.8166
36.0062
36.0062
36.0062
36.0062
37.344
37.344
44.8166
44.8166
34.7163
34.7163
34.7163
34.7163
38.7315
38.7315
38.7315
38.7315
41.6631
41.6631
32.2735
32.2735
31.1173
31.1173
36.0062
36.0062
31.1173
31.1173
30.0026
30.0026
33.4726
33.4726
32.2735
32.2735
36.0062
36.0062
30.0026
30.0026
31.1173
31.1173
32.2735
32.2735
92.9635
92.9635
86.4222
86.4222
83.3262
83.3262
80.3411
80.3411
77.463
77.463
77.463
77.463
72.0123
72.0123
77.463
77.463
72.0123
72.0123
66.9452
66.9452
64.547
64.547
62.2346
62.2346
72.0123
72.0123
77.463
77.463
72.0123
72.0123
74.6879
74.6879
74.6879
74.6879
72.0123
72.0123
72.0123
72.0123
62.2346
62.2346
72.0123
72.0123
69.4326
69.4326
69.4326
69.4326
69.4326
69.4326
66.9452
66.9452
74.6879
74.6879
66.9452
66.9452
69.4326
69.4326
66.9452
66.9452
72.0123
72.0123
60.0051
60.0051
64.547
64.547
62.2346
62.2346
66.9452
66.9452
57.8555
57.8555
64.547
64.547
62.2346
62.2346
62.2346
62.2346
64.547
64.547
60.0051
60.0051
64.547
64.547
66.9452
66.9452
64.547
64.547
62.2346
62.2346
62.2346
62.2346
60.0051
60.0051
64.547
64.547
64.547
64.547
69.4326
69.4326
64.547
64.547
64.547
64.547
62.2346
62.2346
57.8555
57.8555
62.2346
62.2346
64.547
64.547
66.9452
66.9452
53.7845
53.7845
55.7829
55.7829
66.9452
66.9452
62.2346
62.2346
69.4326
69.4326
53.7845
53.7845
55.7829
55.7829
62.2346
62.2346
64.547
64.547
55.7829
55.7829
64.547
64.547
64.547
64.547
62.2346
62.2346
57.8555
57.8555
60.0051
60.0051
57.8555
57.8555
64.547
64.547
57.8555
57.8555
60.0051
60.0051
55.7829
55.7829
57.8555
57.8555
55.7829
55.7829
55.7829
55.7829
55.7829
55.7829
53.7845
53.7845
53.7845
53.7845
60.0051
60.0051
57.8555
57.8555
55.7829
55.7829
57.8555
57.8555
53.7845
53.7845
57.8555
57.8555
53.7845
53.7845
53.7845
53.7845
60.0051
60.0051
55.7829
55.7829
60.0051
60.0051
55.7829
55.7829
51.8578
51.8578
50
50
57.8555
57.8555
50
50
55.7829
55.7829
51.8578
51.8578
53.7845
53.7845
51.8578
51.8578
62.2346
62.2346
50
50
60.0051
60.0051
60.0051
60.0051
51.8578
51.8578
51.8578
51.8578
55.7829
55.7829
48.2088
48.2088
55.7829
55.7829
50
50
55.7829
55.7829
48.2088
48.2088
51.8578
51.8578
50
50
50
50
48.2088
48.2088
50
50
48.2088
48.2088
51.8578
51.8578
53.7845
53.7845
48.2088
48.2088
53.7845
53.7845
44.8166
44.8166
48.2088
48.2088
46.4818
46.4818
57.8555
57.8555
48.2088
48.2088
48.2088
48.2088
46.4818
46.4818
51.8578
51.8578
53.7845
53.7845
51.8578
51.8578
43.2111
43.2111
50
50
48.2088
48.2088
46.4818
46.4818
44.8166
44.8166
57.8555
57.8555
41.6631
41.6631
46.4818
46.4818
43.2111
43.2111
50
50
53.7845
53.7845
44.8166
44.8166
43.2111
43.2111
48.2088
48.2088
44.8166
44.8166
53.7845
53.7845
40.1706
40.1706
55.7829
55.7829
43.2111
43.2111
44.8166
44.8166
51.8578
51.8578
41.6631
41.6631
43.2111
43.2111
40.1706
40.1706
48.2088
48.2088
37.344
37.344
51.8578
51.8578
41.6631
41.6631
41.6631
41.6631
40.1706
40.1706
43.2111
43.2111
48.2088
48.2088
41.6631
41.6631
51.8578
51.8578
44.8166
44.8166
43.2111
43.2111
40.1706
40.1706
46.4818
46.4818
40.1706
40.1706
41.6631
41.6631
50
50
37.344
37.344
41.6631
41.6631
43.2111
43.2111
44.8166
44.8166
38.7315
38.7315
44.8166
44.8166
41.6631
41.6631
38.7315
38.7315
40.1706
40.1706
43.2111
43.2111
41.6631
41.6631
41.6631
41.6631
48.2088
48.2088
38.7315
38.7315
46.4818
46.4818
43.2111
43.2111
34.7163
34.7163
40.1706
40.1706
40.1706
40.1706
50
50
46.4818
46.4818
100
96.4176
96.4176
92.9635
92.9635
86.4222
86.4222
89.6332
89.6332
86.4222
86.4222
83.3262
83.3262
83.3262
83.3262
80.3411
80.3411
80.3411
80.3411
77.463
77.463
74.6879
74.6879
77.463
77.463
77.463
77.463
72.0123
72.0123
74.6879
74.6879
74.6879
74.6879
72.0123
72.0123
69.4326
69.4326
72.0123
72.0123
69.4326
69.4326
69.4326
69.4326
66.9452
66.9452
66.9452
66.9452
64.547
64.547
64.547
64.547
66.9452
66.9452
64.547
64.547
64.547
64.547
69.4326
69.4326
62.2346
62.2346
62.2346
62.2346
64.547
64.547
62.2346
62.2346
62.2346
62.2346
60.0051
60.0051
57.8555
57.8555
62.2346
62.2346
60.0051
60.0051
60.0051
60.0051
55.7829
55.7829
55.7829
55.7829
53.7845
53.7845
51.8578
51.8578
51.8578
51.8578
60.0051
60.0051
57.8555
57.8555
62.2346
62.2346
57.8555
57.8555
57.8555
57.8555
55.7829
55.7829
53.7845
53.7845
51.8578
51.8578
50
50
55.7829
55.7829
55.7829
55.7829
60.0051
60.0051
50
50
55.7829
55.7829
53.7845
53.7845
50
50
50
50
48.2088
48.2088
53.7845
53.7845
46.4818
46.4818
46.4818
46.4818
48.2088
48.2088
48.2088
48.2088
44.8166
44.8166
43.2111
43.2111
51.8578
51.8578
51.8578
51.8578
51.8578
51.8578
50
50
46.4818
46.4818
44.8166
44.8166
40.1706
40.1706
41.6631
41.6631
48.2088
48.2088
48.2088
48.2088
46.4818
46.4818
46.4818
46.4818
43.2111
43.2111
43.2111
43.2111
41.6631
41.6631
40.1706
40.1706
38.7315
38.7315
40.1706
40.1706
37.344
37.344
40.1706
40.1706
38.7315
38.7315
36.0062
36.0062
46.4818
46.4818
44.8166
44.8166
41.6631
41.6631
38.7315
38.7315
41.6631
41.6631
37.344
37.344
44.8166
44.8166
43.2111
43.2111
40.1706
40.1706
37.344
37.344
38.7315
38.7315
40.1706
40.1706
36.0062
36.0062
36.0062
36.0062
34.7163
34.7163
41.6631
41.6631
36.0062
36.0062
38.7315
38.7315
34.7163
34.7163
33.4726
33.4726
34.7163
34.7163
40.1706
40.1706
33.4726
33.4726
33.4726
33.4726
33.4726
33.4726
32.2735
32.2735
31.1173
31.1173
38.7315
38.7315
32.2735
32.2735
31.1173
31.1173
30.0026
30.0026
30.0026
30.0026
31.1173
31.1173
30.0026
30.0026
37.344
37.344
31.1173
31.1173
28.9278
28.9278
27.8914
27.8914
28.9278
28.9278
36.0062
36.0062
30.0026
30.0026
80.3411
80.3411
77.463
77.463
74.6879
74.6879
89.6332
89.6332
83.3262
83.3262
80.3411
80.3411
80.3411
80.3411
