# vtk DataFile Version 3.0
Tree
ASCII
DATASET POLYDATA
POINTS 1582 float
162774 225274 273.8
162774 225274 10273.8
141774 225774 23773.8
135774 212774 31961.8
137934 217683 31634.6
132774 207914 54773.8
134322 210845 47832.2
148774 203774 62961.8
133610 209497 51025.4
114774 200774 53953.8
133025 208389 53649.4
126774 197966 71773.8
146949 203073 62267.8
158774 193190 77773.8
118001 201045 55516.6
104774 191774 62881.8
155227 196155 73121.8
169774 183026 69773.8
109800 195297 60083
111774 189974 81773.8
158721 193287 77733.4
169290 184774 91773.8
130361 201327 68370.2
136774 195914 92773.8
106059 192201 61075.4
92773.8 179978 61773.8
111182 191571 75266.6
99773.8 183994 83773.8
166546 184015 70381.4
174774 164774 67657.8
134850 197538 85452.6
118774 193774 100654
171513 170528 66807.4
172054 157774 54773.8
166245 186054 85176.6
180002 167774 87773.8
171854 179259 88621.4
179782 172774 104774
101667 184962 80656.2
84773.8 171970 82773.8
136367 196624 92285.8
139774 195998 111774
174072 165008 67948.6
179774 148774 72345.8
88775 174077 80662.2
80773.8 161966 71773.8
119998 193917 95823
104774 189986 100774
119118 194156 100307
116774 195982 115774
136652 196127 92627.4
155774 193970 99773.8
177537 152776 69606.6
178050 136774 63773.8
178084 169055 87862.6
182018 154774 86773.8
177597 172804 99820.6
183998 156774 109774
85974.2 172602 82140.2
79773.8 171774 97501.8
106924 190178 99420.2
90773.8 183774 100654
137594 196167 108052
130774 196002 122774
117477 195434 111134
104774 193994 115774
139888 196098 110698
149774 195998 119774
152059 193597 101330
163774 191182 109774
177732 146695 67390.2
183998 131774 79773.8
177957 137633 63490.2
178002 123774 54773.8
146808 196028 117051
143774 195998 135774
116769 195941 115416
113774 198002 132774
181246 163667 108294
183998 156774 129774
182594 158609 110279
183998 144774 118774
83294.2 163938 75507.8
78773.8 145774 76225.8
80129.8 151223 76010.6
83501.8 139774 62773.8
181233 156950 88187.8
183998 142774 94773.8
177989 127931 57388.6
177774 127774 43257.8
81079 155037 75859.8
76773.8 147578 91773.8
78389.4 151196 88443.8
77549.8 154774 107774
183619 147809 118440
183998 139774 132774
179127 172783 103288
175218 181774 116774
96878.6 186263 102380
84773.8 181886 116774
78227.8 155348 103981
80773.8 165774 117958
78302.2 153438 96833.8
79449.8 144774 104774
183884 145685 118674
183914 130774 118774
148884 196007 118957
163774 191230 126774
113250 196993 129627
104258 194774 143774
110895 196783 136019
113774 199774 147998
111759 197681 139613
127042 199774 143774
143681 196225 135103
139974 196774 154774
183310 140123 129464
179818 126774 136774
178193 175069 109377
179994 171774 120774
182774 157530 128220
182774 151598 148774
181983 135051 132241
179774 135774 149894
83170.6 140485 66067.8
87637.8 122774 60773.8
79963.8 147029 76595.4
81557.8 131774 79773.8
80465.4 139974 79413
79561.8 134774 88773.8
107960 194187 116154
95773.8 191774 130090
77753.4 154946 106636
81449.8 148774 116774
157231 193361 125653
162774 191782 142774
89430.6 182579 114116
87773.8 175894 133774
183346 133120 119307
179914 118774 122774
107715 194539 141987
104774 185774 159266
87926.2 177492 124623
83773.8 166774 128790
179355 134121 144819
171258 125774 157774
106127 189806 151318
114774 193774 163322
86373.4 129089 61086.6
89773.8 123602 49773.8
161111 192256 137637
153774 193942 146774
79984.2 145719 103558
82997.8 135774 111774
138584 197465 151839
130774 199870 166774
80616.2 135470 85308.6
84317.8 123774 92773.8
175847 180103 116317
173978 182774 127774
87258.6 124668 60867.8
88361.8 115774 73773.8
136825 197877 158382
141086 195774 169774
83764.2 139913 63150.2
86773.8 137774 51581.8
179858 119977 121154
176774 110774 119962
87523.8 123342 60801.8
92325.8 109774 60773.8
105396 187629 155610
98153.8 174774 155774
179320 127609 136390
172086 116774 142774
88375 175889 132848
91773.8 172774 144806
174256 120024 140859
171774 109774 134130
181934 154385 146681
179774 154774 164790
85349 168128 128643
87017.8 155774 135774
172816 126907 153903
166774 117774 155114
89138.2 123726 53313.4
93733.8 110774 46773.8
111747 191265 160518
114774 185774 173306
179010 135351 149109
175842 138774 162774
113866 193021 162481
122774 199962 159774
171409 126755 157030
165774 128002 168774
174935 181639 126347
175258 181774 135774
84807.8 124717 90665
90297.8 113774 93773.8
139635 196167 168979
140774 194774 179954
88211.4 117932 92592.6
91545.8 111774 85773.8
83107.4 137479 111235
89593.8 128774 123774
182522 156587 133759
182014 165774 140774
84464.6 124057 92141
87549.8 121774 105774
100327 178630 155725
101662 166774 164774
176907 111579 119853
171774 98773.8 116886
89671.8 115021 93419.4
93737.8 110774 102774
113295 186296 169210
111774 175774 176022
173114 115309 137763
164774 106774 141966
179172 155801 163347
175774 158774 175158
91377.4 112037 85847.4
96773.8 101774 73149.8
139557 196981 153893
149890 192774 158774
167915 127528 164311
170090 136774 170774
92282.2 111036 61063
97657.8 98773.8 61773.8
173020 101515 116551
170774 93657.8 108774
177609 157168 168780
172774 148774 176026
85572.2 134171 116000
87021.8 139774 127774
167587 119297 153851
162774 112774 151986
90110.2 114148 93667.4
96773.8 105574 93773.8
141215 194499 176367
146774 189330 181774
167018 118231 154735
157950 116774 164774
89093.4 130091 122822
93773.8 127774 131970
182172 162698 139859
181874 166774 151774
166477 128530 168073
161774 133774 182574
102582 168112 164332
104774 161774 169970
165985 128160 168563
156774 123774 175322
113079 176727 175917
113542 168774 181774
172987 149220 174757
168010 140774 179774
181711 165219 140934
179186 174774 145774
172838 148908 175645
169774 149774 185890
174711 182157 134909
171974 184774 147774
175728 158620 174782
171906 160774 184774
94081.4 111219 102112
100774 106298 113774
148764 193435 157176
161774 189386 156774
172147 99596.2 116785
163362 90773.8 117774
172971 161275 181037
167774 170970 188774
89443.8 129169 123488
93773.8 117526 117774
149552 192972 158295
156774 187818 168774
96545.4 106413 94019.8
103574 98773.8 94773.8
91119.8 172355 142413
93657.8 163774 150774
171492 110311 134792
166410 99773.8 129774
101465 101066 94547.4
104774 95773.8 84881.8
181380 166841 149117
177774 175118 155774
170260 94389.8 110034
162774 83733.8 102774
97930.2 100457 62722.2
104774 90773.8 65973.8
170620 93877.4 109152
176774 99577.8 99773.8
102173 94453.8 64738.2
104342 87773.8 57773.8
105022 162365 169846
110774 153774 179958
167415 90340.6 107275
170774 87773.8 95105.8
97695.4 108562 108409
104774 99773.8 107130
93210.2 128819 131179
98773.8 130774 143962
169410 150267 184839
164098 152774 196774
107469 157455 173935
108122 148774 173774
99973.8 107478 113007
104514 107774 124774
166037 101186 130819
159270 92773.8 127774
104355 91286.6 65134.6
109774 83133.8 63773.8
93604.6 128087 131733
97517.8 118774 127774
177187 174333 155043
171558 181774 160774
104648 90927.8 65722.2
108774 89737.8 76773.8
145504 190974 178889
154774 185198 177774
109782 154878 178151
113774 158774 186802
170707 89290.6 97225
176774 93657.8 86773.8
167713 169445 187105
157318 178774 191774
110476 154105 179416
115486 148774 186774
162767 84931.4 103009
153774 79545.8 95773.8
102650 102410 107514
111774 98125.8 118774
173191 90466.6 91683.8
173286 86773.8 83773.8
104378 106994 122297
112302 102774 129774
159349 82885 100260
161774 81021.8 89773.8
97739.4 99279 62058.2
98325.8 97773.8 48773.8
96826.6 131603 140721
98773.8 141586 152774
95760.2 124269 131089
101454 118774 134774
108685 150412 174598
113774 138774 179258
178445 172086 153265
175774 172774 168898
109682 84444.6 64281
119566 76773.8 64773.8
162557 81607 90940.2
165774 80773.8 83313.8
113983 150373 184566
117774 153774 193254
97474.2 140684 149197
96357.8 149774 153774
173036 179029 160168
168042 180774 170774
98383.8 141315 151701
102774 136774 157890
111389 98775.4 118031
118222 96773.8 125774
173889 87815 84789.4
177774 87089.8 75773.8
111433 144127 177114
110774 134226 169774
87233 158269 135144
91773.8 149774 145026
113071 140380 178615
120342 136774 189774
165607 80267 83874.6
169774 77773.8 74421.8
111069 104053 129311
118774 103774 140886
163759 80110.6 85779
161774 75033.8 75773.8
118579 138587 187753
121774 142774 196862
108291 149265 174021
104774 143774 165966
115625 97534.6 122832
122774 91773.8 120974
114724 139842 181356
121774 128414 182774
87811.4 138261 126806
91497.8 140774 137774
168445 180143 169900
163774 180514 179774
117117 134927 180677
118218 126774 173774
120815 141518 194129
127110 137774 199774
102769 136989 157277
107774 132354 162774
115846 103880 136487
112774 113602 147774
118136 96961 125629
125582 95773.8 133774
118703 103811 140311
125586 103774 147774
121824 92661 120747
129774 87001.8 115774
122419 103791 144341
131774 99481.8 142774
113695 110685 144388
106290 117774 143774
124417 104343 147295
128774 107774 156862
112676 113585 147365
109774 120774 153322
129470 87697.4 116245
137774 83017.8 111774
126564 89583.4 117956
135774 87773.8 123974
106272 133745 161125
109542 125774 158774
98636.6 130851 143829
103774 128774 152970
129683 87210.6 115915
128502 83773.8 105774
136237 83773.8 111245
141774 80369.8 104774
132274 88461.4 121687
132774 91773.8 130966
96997.4 148299 153394
98773.8 156774 159886
117718 128275 174455
116774 121774 165322
129419 84390.2 106972
132774 81549.8 94773.8
112745 113597 147651
117666 114774 156774
117521 114800 155815
122774 116214 163774
118068 127224 173978
124578 119774 172774
127940 107796 156041
130774 111774 164862
140850 221329 27466.6
144774 214254 30497.8
136422 214247 31863.8
128774 209998 36773.8
143597 216377 29588.2
144774 211774 44793.8
128929 210455 36715.4
122774 207990 40773.8
145693 211849 43060.6
147774 208774 51165.8
124156 208377 40658.2
120774 205998 47773.8
148227 203563 62753.4
152858 203774 58773.8
121788 206711 45639
114774 203190 45773.8
132849 208056 54436.6
120774 200002 62773.8
132796 207957 54672.6
137774 202774 67293.8
148609 203711 62899.4
[...]
CELL_DATA 1581
SCALARS radius float
LOOKUP_TABLE default
100
100
100
100
92.9635
92.9635
89.6332
89.6332
86.4222
86.4222
83.3262
83.3262
86.4222
86.4222
83.3262
83.3262
83.3262
83.3262
80.3411
80.3411
80.3411
80.3411
80.3411
80.3411
77.463
77.463
77.463
77.463
77.463
77.463
77.463
77.463
74.6879
74.6879
77.463
77.463
74.6879
74.6879
74.6879
74.6879
74.6879
74.6879
72.0123
72.0123
72.0123
72.0123
74.6879
74.6879
72.0123
72.0123
72.0123
72.0123
66.9452
66.9452
69.4326
69.4326
72.0123
72.0123
69.4326
69.4326
72.0123
72.0123
69.4326
69.4326
69.4326
69.4326
66.9452
66.9452
64.547
64.547
64.547
64.547
62.2346
62.2346
64.547
64.547
66.9452
66.9452
69.4326
69.4326
66.9452
66.9452
69.4326
69.4326
64.547
64.547
64.547
64.547
60.0051
60.0051
66.9452
66.9452
64.547
64.547
64.547
64.547
69.4326
69.4326
69.4326
69.4326
57.8555
57.8555
62.2346
62.2346
62.2346
62.2346
60.0051
60.0051
64.547
64.547
62.2346
62.2346
60.0051
60.0051
60.0051
60.0051
62.2346
62.2346
64.547
64.547
64.547
64.547
57.8555
57.8555
62.2346
62.2346
62.2346
62.2346
60.0051
60.0051
66.9452
66.9452
55.7829
55.7829
57.8555
57.8555
66.9452
66.9452
60.0051
60.0051
60.0051
60.0051
64.547
64.547
55.7829
55.7829
57.8555
57.8555
57.8555
57.8555
53.7845
53.7845
60.0051
60.0051
55.7829
55.7829
57.8555
57.8555
62.2346
62.2346
55.7829
55.7829
51.8578
51.8578
60.0051
60.0051
55.7829
55.7829
53.7845
53.7845
55.7829
55.7829
55.7829
55.7829
62.2346
62.2346
51.8578
51.8578
57.8555
57.8555
60.0051
60.0051
53.7845
53.7845
53.7845
53.7845
55.7829
55.7829
53.7845
53.7845
53.7845
53.7845
51.8578
51.8578
60.0051
60.0051
55.7829
55.7829
50
50
53.7845
53.7845
57.8555
57.8555
62.2346
62.2346
53.7845
53.7845
53.7845
53.7845
53.7845
53.7845
51.8578
51.8578
53.7845
53.7845
50
50
53.7845
53.7845
51.8578
51.8578
53.7845
53.7845
50
50
50
50
51.8578
51.8578
50
50
55.7829
55.7829
51.8578
51.8578
50
50
46.4818
46.4818
50
50
53.7845
53.7845
60.0051
60.0051
48.2088
48.2088
51.8578
51.8578
46.4818
46.4818
51.8578
51.8578
46.4818
46.4818
57.8555
57.8555
44.8166
44.8166
57.8555
57.8555
46.4818
46.4818
50
50
50
50
50
50
44.8166
44.8166
51.8578
51.8578
48.2088
48.2088
44.8166
44.8166
55.7829
55.7829
48.2088
48.2088
43.2111
43.2111
57.8555
57.8555
50
50
48.2088
48.2088
48.2088
48.2088
46.4818
46.4818
50
50
48.2088
48.2088
48.2088
48.2088
51.8578
51.8578
43.2111
43.2111
48.2088
48.2088
46.4818
46.4818
44.8166
44.8166
44.8166
44.8166
50
50
53.7845
53.7845
43.2111
43.2111
44.8166
44.8166
46.4818
46.4818
44.8166
44.8166
40.1706
40.1706
44.8166
44.8166
44.8166
44.8166
46.4818
46.4818
43.2111
43.2111
44.8166
44.8166
43.2111
43.2111
46.4818
46.4818
50
50
48.2088
48.2088
46.4818
46.4818
55.7829
55.7829
43.2111
43.2111
41.6631
41.6631
41.6631
41.6631
46.4818
46.4818
51.8578
51.8578
44.8166
44.8166
44.8166
44.8166
41.6631
41.6631
44.8166
44.8166
55.7829
55.7829
43.2111
43.2111
38.7315
38.7315
43.2111
43.2111
40.1706
40.1706
40.1706
40.1706
44.8166
44.8166
43.2111
43.2111
41.6631
41.6631
51.8578
51.8578
48.2088
48.2088
40.1706
40.1706
38.7315
38.7315
43.2111
43.2111
40.1706
40.1706
41.6631
41.6631
38.7315
38.7315
41.6631
41.6631
37.344
37.344
38.7315
38.7315
34.7163
34.7163
37.344
37.344
38.7315
38.7315
40.1706
40.1706
41.6631
41.6631
46.4818
46.4818
37.344
37.344
37.344
37.344
37.344
37.344
44.8166
44.8166
38.7315
38.7315
36.0062
36.0062
36.0062
36.0062
34.7163
34.7163
37.344
37.344
32.2735
32.2735
96.4176
96.4176
89.6332
89.6332
92.9635
92.9635
83.3262
83.3262
86.4222
86.4222
80.3411
80.3411
83.3262
83.3262
77.463
77.463
80.3411
80.3411
77.463
77.463
80.3411
80.3411
72.0123
72.0123
80.3411
80.3411
77.463
77.463
69.4326
69.4326
66.9452
66.9452
64.547
64.547
77.463
77.463
74.6879
74.6879
74.6879
74.6879
62.2346
62.2346
72.0123
72.0123
80.3411
80.3411
74.6879
74.6879
74.6879
74.6879
72.0123
72.0123
77.463
77.463
69.4326
69.4326
74.6879
74.6879
72.0123
72.0123
66.9452
66.9452
69.4326
69.4326
69.4326
69.4326
72.0123
72.0123
72.0123
72.0123
66.9452
66.9452
69.4326
69.4326
72.0123
72.0123
72.0123
72.0123
66.9452
66.9452
69.4326
69.4326
64.547
64.547
66.9452
66.9452
64.547
64.547
69.4326
69.4326
66.9452
66.9452
66.9452
66.9452
69.4326
69.4326
66.9452
66.9452
62.2346
62.2346
66.9452
66.9452
64.547
64.547
62.2346
62.2346
62.2346
62.2346
66.9452
66.9452
64.547
64.547
64.547
64.547
60.0051
60.0051
62.2346
62.2346
66.9452
66.9452
64.547
64.547
62.2346
62.2346
64.547
64.547
64.547
64.547
60.0051
60.0051
62.2346
62.2346
66.9452
66.9452
57.8555
57.8555
55.7829
55.7829
60.0051
60.0051
62.2346
62.2346
62.2346
62.2346
60.0051
60.0051
60.0051
60.0051
57.8555
57.8555
62.2346
62.2346
57.8555
57.8555
62.2346
62.2346
60.0051
60.0051
57.8555
57.8555
57.8555
57.8555
53.7845
53.7845
57.8555
57.8555
66.9452
66.9452
60.0051
60.0051
55.7829
55.7829
60.0051
60.0051
53.7845
53.7845
53.7845
53.7845
60.0051
60.0051
60.0051
60.0051
62.2346
62.2346
60.0051
60.0051
55.7829
55.7829
64.547
64.547
57.8555
57.8555
55.7829
55.7829
57.8555
57.8555
55.7829
55.7829
64.547
64.547
53.7845
53.7845
60.0051
60.0051
62.2346
62.2346
62.2346
62.2346
53.7845
53.7845
55.7829
55.7829
55.7829
55.7829
53.7845
53.7845
57.8555
57.8555
53.7845
53.7845
60.0051
60.0051
55.7829
55.7829
57.8555
57.8555
55.7829
55.7829
57.8555
57.8555
57.8555
57.8555
57.8555
57.8555
53.7845
53.7845
51.8578
51.8578
51.8578
51.8578
55.7829
55.7829
53.7845
53.7845
55.7829
55.7829
53.7845
53.7845
51.8578
51.8578
51.8578
51.8578
53.7845
53.7845
55.7829
55.7829
50
50
51.8578
51.8578
57.8555
57.8555
50
50
55.7829
55.7829
48.2088
48.2088
55.7829
55.7829
53.7845
53.7845
51.8578
51.8578
53.7845
53.7845
50
50
51.8578
51.8578
43.2111
43.2111
46.4818
46.4818
51.8578
51.8578
53.7845
53.7845
44.8166
44.8166
51.8578
51.8578
55.7829
55.7829
48.2088
48.2088
50
50
48.2088
48.2088
50
50
48.2088
48.2088
44.8166
44.8166
48.2088
48.2088
50
50
48.2088
48.2088
51.8578
51.8578
48.2088
48.2088
46.4818
46.4818
43.2111
43.2111
48.2088
48.2088
48.2088
48.2088
43.2111
43.2111
50
50
51.8578
51.8578
50
50
44.8166
44.8166
50
50
43.2111
43.2111
46.4818
46.4818
43.2111
43.2111
48.2088
48.2088
41.6631
41.6631
48.2088
48.2088
43.2111
43.2111
48.2088
48.2088
43.2111
43.2111
51.8578
51.8578
46.4818
46.4818
46.4818
46.4818
46.4818
46.4818
50
50
40.1706
40.1706
48.2088
48.2088
41.6631
41.6631
44.8166
44.8166
41.6631
41.6631
43.2111
43.2111
44.8166
44.8166
41.6631
41.6631
41.6631
41.6631
41.6631
41.6631
46.4818
46.4818
48.2088
48.2088
37.344
37.344
43.2111
43.2111
36.0062
36.0062
40.1706
40.1706
40.1706
40.1706
43.2111
43.2111
38.7315
38.7315
38.7315
38.7315
41.6631
41.6631
40.1706
40.1706
46.4818
46.4818
43.2111
43.2111
41.6631
41.6631
37.344
37.344
48.2088
48.2088
44.8166
44.8166
38.7315
38.7315
50
50
38.7315
38.7315
37.344
37.344
53.7845
53.7845
40.1706
40.1706
43.2111
43.2111
37.344
37.344
50
50
40.1706
40.1706
33.4726
33.4726
38.7315
38.7315
53.7845
53.7845
43.2111
43.2111
33.4726
33.4726
36.0062
36.0062
40.1706
40.1706
51.8578
51.8578
37.344
37.344
44.8166
44.8166
38.7315
38.7315
34.7163
34.7163
36.0062
36.0062
89.6332
89.6332
86.4222
86.4222
83.3262
83.3262
83.3262
83.3262
80.3411
80.3411
74.6879
74.6879
74.6879
74.6879
77.463
77.463
77.463
77.463
72.0123
72.0123
74.6879
74.6879
77.463
77.463
74.6879
74.6879
72.0123
72.0123
60.0051
60.0051
72.0123
72.0123
77.463
77.463
62.2346
62.2346
69.4326
69.4326
74.6879
74.6879
72.0123
72.0123
72.0123
72.0123
72.0123
72.0123
69.4326
69.4326
57.8555
57.8555
69.4326
69.4326
74.6879
74.6879
69.4326
69.4326
72.0123
72.0123
72.0123
72.0123
64.547
64.547
66.9452
66.9452
66.9452
66.9452
66.9452
66.9452
69.4326
69.4326
64.547
64.547
66.9452
66.9452
64.547
64.547
69.4326
69.4326
64.547
64.547
66.9452
66.9452
66.9452
66.9452
62.2346
62.2346
60.0051
60.0051
62.2346
62.2346
64.547
64.547
66.9452
66.9452
64.547
64.547
57.8555
57.8555
62.2346
62.2346
64.547
64.547
57.8555
57.8555
60.0051
60.0051
62.2346
62.2346
62.2346
62.2346
55.7829
55.7829
62.2346
62.2346
53.7845
53.7845
57.8555
57.8555
60.0051
60.0051
64.547
64.547
60.0051
60.0051
60.0051
60.0051
64.547
64.547
57.8555
57.8555
60.0051
60.0051
62.2346
62.2346
62.2346
62.2346
62.2346
62.2346
62.2346
62.2346
57.8555
57.8555
53.7845
53.7845
57.8555
57.8555
55.7829
55.7829
55.7829
55.7829
60.0051
60.0051
57.8555
57.8555
62.2346
62.2346
60.0051
60.0051
55.7829
55.7829
60.0051
60.0051
55.7829
55.7829
57.8555
57.8555
57.8555
57.8555
57.8555
57.8555
57.8555
57.8555
60.0051
60.0051
57.8555
57.8555
57.8555
57.8555
55.7829
55.7829
57.8555
57.8555
57.8555
57.8555
60.0051
60.0051
55.7829
55.7829
60.0051
60.0051
60.0051
60.0051
57.8555
57.8555
62.2346
62.2346
51.8578
51.8578
57.8555
57.8555
57.8555
57.8555
48.2088
48.2088
55.7829
55.7829
50
50
53.7845
53.7845
55.7829
55.7829
51.8578
51.8578
51.8578
51.8578
50
50
53.7845
53.7845
55.7829
55.7829
51.8578
51.8578
60.0051
60.0051
50
50
51.8578
51.8578
57.8555
57.8555
53.7845
53.7845
51.8578
51.8578
53.7845
53.7845
57.8555
57.8555
50
50
51.8578
51.8578
50
50
55.7829
55.7829
50
50
53.7845
53.7845
60.0051
60.0051
51.8578
51.8578
48.2088
48.2088
53.7845
53.7845
51.8578
51.8578
48.2088
48.2088
50
50
53.7845
53.7845
43.2111
43.2111
50
50
51.8578
51.8578
46.4818
46.4818
50
50
48.2088
48.2088
51.8578
51.8578
55.7829
55.7829
46.4818
46.4818
48.2088
48.2088
53.7845
53.7845
46.4818
46.4818
50
50
43.2111
43.2111
53.7845
53.7845
41.6631
41.6631
46.4818
46.4818
48.2088
48.2088
44.8166
44.8166
44.8166
44.8166
48.2088
48.2088
48.2088
48.2088
50
50
46.4818
46.4818
55.7829
55.7829
44.8166
44.8166
48.2088
48.2088
44.8166
44.8166
41.6631
41.6631
44.8166
44.8166
46.4818
46.4818
43.2111
43.2111
48.2088
48.2088
48.2088
48.2088
46.4818
46.4818
41.6631
41.6631
46.4818
46.4818
41.6631
41.6631
44.8166
44.8166
55.7829
55.7829
38.7315
38.7315
53.7845
53.7845
41.6631
41.6631
43.2111
43.2111
41.6631
41.6631
44.8166
44.8166
44.8166
44.8166
43.2111
43.2111
46.4818
46.4818
44.8166
44.8166
38.7315
38.7315
43.2111
43.2111
43.2111
43.2111
46.4818
46.4818
40.1706
40.1706
41.6631
41.6631
34.7163
34.7163
40.1706
40.1706
48.2088
48.2088
46.4818
46.4818
41.6631
41.6631
46.4818
46.4818
53.7845
53.7845
51.8578
51.8578
41.6631
41.6631
100
96.4176
96.4176
89.6332
89.6332
86.4222
86.4222
83.3262
83.3262
92.9635
92.9635
80.3411
80.3411
83.3262
83.3262
77.463
77.463
74.6879
74.6879
80.3411
80.3411
74.6879
74.6879
72.0123
72.0123
77.463
77.463
72.0123
72.0123
74.6879
74.6879
69.4326
69.4326
72.0123
72.0123
72.0123
72.0123
64.547
64.547
69.4326
69.4326
69.4326
69.4326
66.9452
66.9452
62.2346
62.2346
66.9452
66.9452
66.9452
66.9452
72.0123
72.0123
60.0051
60.0051
64.547
64.547
64.547
64.547
69.4326
69.4326
57.8555
57.8555
69.4326
69.4326
62.2346
62.2346
64.547
64.547
55.7829
55.7829
57.8555
57.8555
62.2346
62.2346
60.0051
60.0051
55.7829
55.7829
53.7845
53.7845
51.8578
51.8578
53.7845
53.7845
60.0051
60.0051
66.9452
66.9452
53.7845
53.7845
51.8578
51.8578
92.9635
92.9635
51.8578
51.8578
50
50
53.7845
53.7845
50
50
57.8555
57.8555
55.7829
55.7829
48.2088
48.2088
48.2088
48.2088
53.7845
53.7845
51.8578
51.8578
48.2088
48.2088
46.4818
46.4818
46.4818
46.4818
53.7845
53.7845
44.8166
44.8166
51.8578
51.8578
50
50
46.4818
46.4818
44.8166
44.8166
43.2111
43.2111
51.8578
51.8578
44.8166
44.8166
48.2088
48.2088
43.2111
43.2111
41.6631
41.6631
41.6631
41.6631
40.1706
40.1706
46.4818
46.4818
44.8166
44.8166
43.2111
43.2111
48.2088
48.2088
43.2111
43.2111
46.4818
46.4818
41.6631
41.6631
38.7315
38.7315
43.2111
43.2111
37.344
37.344
44.8166
44.8166
40.1706
40.1706
41.6631
41.6631
38.7315
38.7315
43.2111
43.2111
44.8166
44.8166
38.7315
38.7315
37.344
37.344
36.0062
36.0062
40.1706
40.1706
38.7315
38.7315
41.6631
41.6631
43.2111
43.2111
37.344
37.344
36.0062
36.0062
37.344
37.344
38.7315
38.7315
36.0062
36.0062
41.6631
41.6631
37.344
37.344
36.0062
36.0062
40.1706
40.1706
36.0062
36.0062
36.0062
36.0062
36.0062
36.0062
34.7163
34.7163
34.7163
34.7163
33.4726
33.4726
38.7315
38.7315
34.7163
34.7163
32.2735
32.2735
31.1173
31.1173
37.344
37.344
33.4726
33.4726
32.2735
32.2735
30.0026
30.0026
31.1173
31.1173
30.0026
30.0026
28.9278
28.9278
36.0062
36.0062
30.0026
30.0026
28.9278
28.9278
30.0026
30.0026
34.7163
34.7163
28.9278
28.9278
64.547
64.547
86.4222
86.4222
89.6332
89.6332
80.3411
80.3411
80.3411
80.3411
77.463
77.463
74.6879
74.6879
80.3411
80.3411
83.3262
83.3262
80.3411
80.3411
