# vtk DataFile Version 3.0
Tree
ASCII
DATASET POLYDATA
POINTS 1582 float
162774 225274 273.8
162774 225274 10273.8
141774 225774 23773.8
135774 212774 31961.8
137574 216674 29505.4
144774 209774 52789.8
136314 213944 31225
120774 205774 48965.8
140294 211069 46602.6
130774 201774 66805.8
143391 208858 51823.8
153774 197774 71965.8
122107 205438 45755
107774 195238 57773.8
112074 198298 54168.2
115774 193194 74773.8
133764 203449 64006.6
133774 195814 85773.8
152421 199273 64889.4
170066 180774 71773.8
163361 187803 69157.8
169290 184774 91773.8
108491 195186 56766.6
94773.8 181974 65773.8
112659 193958 68821.8
102774 185890 83773.8
131951 197350 81156.6
120774 192062 94773.8
167842 181557 70072.6
174774 164774 67657.8
133227 196275 84388.6
139774 195998 102774
172694 169809 68382.2
171910 158774 53773.8
166562 186167 81370.2
180002 167774 87773.8
174895 174763 85340.6
179782 172774 104774
96009.4 182226 64851.4
83509.8 167774 72773.8
174167 165241 68323.4
178014 149774 69773.8
87721.8 173112 71821
82345.8 169774 85773.8
123092 193771 93617
115774 194070 112774
172203 158945 55928.6
172062 146774 44773.8
120311 193884 100897
129774 195998 111774
139381 195805 95008.2
157078 193774 103774
175937 158126 68990.6
182002 152774 83773.8
177368 151265 68737
179782 134774 64773.8
178316 173371 98943.8
183998 156774 110774
84773.4 169375 72487.8
79553.8 153774 67773.8
85137.4 172578 81874.2
85773.8 179550 100774
85583 177458 95103.8
98773.8 187774 100578
116749 195033 111823
112774 197774 126346
127219 195536 110860
129774 196774 126222
150353 194546 100443
151774 195978 116774
150410 195594 114325
144774 195998 130774
178865 141041 66279.8
183998 129774 78773.8
155978 193344 103868
166034 188774 112774
83059.8 170028 85573
75681.8 159774 100774
179305 135649 64301.4
179194 121774 56773.8
180620 152247 81563
183998 144774 92773.8
182179 157885 108948
183998 141774 117774
183452 157107 110226
183998 154774 131774
81131.4 158114 70807.4
77773.8 145774 77657.8
179245 128156 60236.6
177258 127774 43773.8
79318.2 151451 74506.6
81601.8 138774 67773.8
78237 147477 76712.6
77533.8 145774 90773.8
183834 155474 125309
183998 139774 132774
145737 195873 129710
141774 196014 145774
85536.6 178810 100122
84773.8 181886 116774
78977 160255 98429.4
79017.8 149774 109774
81975.4 140870 67968.2
85545.8 131774 60773.8
113147 196926 125285
107774 197006 146774
148635 195700 120171
159074 193774 131774
85307.8 179733 105118
79773.8 170774 112894
156498 193904 127153
166774 189890 127774
143280 195960 139669
126774 199874 143774
130276 198663 141686
119954 198774 136774
141803 196246 145526
139074 197774 155774
179354 172611 104367
181230 169774 119774
183661 143729 129181
182002 128774 125774
183897 140960 131696
177774 132486 151774
182499 133260 126796
178038 123774 136774
84933.8 181240 113277
94773.8 191890 125774
183637 154991 131277
182014 153774 151774
109213 194675 143032
106774 188774 157970
77969.8 146830 82055.8
80533.8 131774 88773.8
182044 129510 125373
180774 120254 119774
84821.8 181692 115725
87773.8 175894 133774
181080 137062 140932
181986 143774 149774
165564 188148 111999
173774 183258 118774
84474.6 134503 62932.2
87653.8 118774 69773.8
158044 193560 131377
161102 191774 145774
79387 150784 106851
81733.8 136774 110774
127824 199511 143147
125774 200002 157774
85224.6 132593 61421.4
90773.8 118774 53597.8
86652.2 178097 126915
84773.8 163774 129970
177687 133062 150176
170774 127774 161270
106787 189494 152714
100774 179162 157774
178505 125849 135620
172774 120302 147774
91329.8 187446 122826
94773.8 186774 135962
127167 199723 155365
131774 198958 168774
80278.6 145460 108341
83773.8 142774 122894
178178 124396 136428
173190 112774 135774
88084.2 176332 133322
92153.8 174774 143774
131473 198592 163148
143774 193994 169774
81679 132952 88304.2
87553.8 118774 94773.8
106778 188990 156393
118226 191774 170774
181544 154127 150939
179774 153774 163938
165008 189977 128166
173978 182774 131774
90325.4 119841 54260.6
93537.8 111774 49773.8
142482 196115 142832
150774 193986 150774
82925 138451 66054.6
85493.8 140774 55773.8
183696 155136 129487
182014 165774 136774
84913.8 139117 58112.2
87773.8 134750 46773.8
180466 121746 121874
175398 107774 120774
88187.8 120029 69811.8
92285.8 109774 75773.8
110708 188591 162735
112774 180774 173962
172648 121497 146405
165774 118230 156774
89417 116952 71600.6
95485.8 104774 62773.8
138115 196109 166726
138774 195942 179774
170521 128626 160381
161970 124774 170774
83816.6 127979 92356.6
85617.8 124774 104774
82725.4 143580 118528
89601.8 127774 122774
102497 180077 157108
101486 165774 162774
173269 113781 134863
167774 103090 131774
85337.4 168071 129053
90317.8 158774 143774
175599 108607 119949
171774 98773.8 116886
174390 131021 154870
173774 139774 167970
84943 165063 129695
81533.8 157774 121774
141929 194173 169723
147974 188774 178774
179220 153047 162261
175774 150774 172806
94492.6 186429 134786
97705.8 184774 146774
166863 127689 165893
165774 131562 173774
87374.2 120595 95187.8
95613.8 108774 103774
127089 199765 143586
116774 199994 149774
177745 153515 167000
175326 160774 175774
111796 181205 171328
109774 168774 176802
172549 100589 116717
169930 92773.8 109774
91703.4 113757 97132.6
95773.8 106306 94773.8
170389 185591 131903
175894 180774 143774
170036 120255 150345
162442 109774 149774
86485 124345 102760
90773.8 119578 111774
148815 194111 150195
152774 190774 161958
165865 118315 155314
155774 113774 162422
94307.4 107066 65717
98773.8 97661.8 66773.8
182171 154386 145040
181782 166774 152774
165315 130376 172605
159774 132774 185130
84037.8 142485 121771
89477.8 137774 130774
174684 106202 118979
176774 103522 106774
88750.2 137786 128789
94773.8 128774 133958
175641 150833 171311
168774 142774 179962
95329.4 107955 94479.4
102774 99453.8 86773.8
102428 168516 162504
106266 157774 171774
172482 147125 175291
169774 151774 187058
175120 159934 175085
169194 168774 187774
180861 165050 150299
178050 174774 152774
94903.4 110378 103129
100314 107774 115774
168347 104463 131362
163542 95773.8 126774
90195.4 120878 111129
93609.8 118774 119774
160673 190893 145067
162774 188102 156774
175835 103021 108669
174098 94773.8 96773.8
98877.8 98742.6 66155.8
104250 90773.8 65773.8
164025 96810.2 126562
159774 89545.8 120774
93837.8 130787 133656
99705.8 125774 141774
174028 96680.2 101217
169258 87773.8 98773.8
97825 108972 109957
106290 99773.8 110774
152223 190722 160942
155330 186774 171774
101716 100814 89274.2
109578 92773.8 89773.8
105961 160534 170531
111486 156774 180774
170689 90445.8 99507
160866 83773.8 106774
102638 93164.6 65888.2
104774 87573.8 56773.8
162143 188939 153262
171774 183006 158774
169241 150846 186159
164774 153774 197298
167051 102167 129922
160458 97773.8 133774
100067 108333 115165
104774 108774 125966
165385 86843 103431
157966 80773.8 97773.8
104199 91204.2 65981.4
110678 83773.8 66773.8
168539 168269 186409
161774 174550 193774
97945.4 127278 139339
99773.8 133578 149774
106591 95829 89583.8
110774 89505.8 77773.8
109828 157902 177701
112358 145774 180774
173833 94613.4 97424.6
172418 87773.8 87773.8
103750 102533 110529
111122 99773.8 121774
169706 182879 158690
175394 175774 164774
94493 129378 133867
98773.8 119774 133118
161378 83565.4 100376
162774 81533.8 89773.8
164885 171661 190386
157322 180774 185774
92990.2 112777 51344.2
97657.8 98773.8 49773.8
104455 108095 123863
111574 104774 131774
111241 156789 180611
115774 152774 190802
161961 173636 192326
151774 178546 195774
99000.2 133439 147656
97773.8 144734 154774
110817 84471.4 66520.2
118578 77773.8 66773.8
167437 184697 157061
167062 183774 167774
111945 147135 179239
113774 136774 178806
172970 88842.6 88496.6
172774 83773.8 79325.8
112234 146182 180313
116774 141774 187290
162047 81473.8 90926.6
161774 78997.8 81773.8
173687 177905 162949
171814 176774 172774
89411.8 158949 139656
92773.8 148774 145890
116901 78882.2 65865.4
121570 72773.8 60773.8
111172 105277 130922
118274 102774 137774
111310 150365 178778
107774 138774 168862
172267 84162.2 81040.2
168774 76773.8 73885.8
116003 153219 189907
121774 149774 199254
113097 139560 177833
113510 130774 170774
108910 100602 118400
116774 94773.8 117978
115553 142269 184218
121998 131774 186774
120043 150807 196450
124002 140774 197774
114415 96522.2 118105
122774 93773.8 126882
168597 78068.6 75449
160774 71773.8 71253.8
108877 145751 173207
102774 146386 163774
115575 103725 135170
115774 109146 145774
171565 177219 171381
166426 177774 181774
83853 142687 122557
87593.8 147774 134774
117667 103389 137566
123774 103706 145774
118092 102959 137711
124774 97461.8 134774
116923 95697.8 120738
127650 87773.8 117774
116136 109097 145291
116774 112774 151946
88041.4 139053 128369
92773.8 137774 139322
115883 109131 145629
108774 116774 145970
123245 103599 144258
131774 103550 150774
125652 89177 116762
132774 83729.8 110774
127168 103576 147255
126774 108346 155774
127050 88194.6 117470
137774 85773.8 121046
111831 114327 146941
108774 122774 153950
90552.2 158569 143151
94773.8 156774 151970
132455 84869.4 112410
139774 81573.8 109774
132678 84071.8 111265
133774 81773.8 104002
133699 86693.8 119687
136774 89773.8 129078
137632 82443.8 109577
142774 79549.8 101774
113979 131590 171637
115774 121138 163774
107792 139678 168788
105774 131774 159958
101802 166131 162401
99773.8 156774 161250
132807 82578.2 105112
129610 81773.8 93773.8
123695 99134.2 136362
133774 95665.8 138774
116385 123069 165757
123598 114774 162774
115085 127671 168933
124774 119706 172774
122795 116733 164027
131774 112774 165970
139912 219205 28097
143774 212006 33773.8
135936 213125 31740.6
125774 209774 32117.8
135822 212879 31895.4
130654 209774 48773.8
131370 209337 47749.4
129774 207182 54773.8
144137 209353 52345.4
150774 206774 51949.8
129492 207379 52875.4
123774 203206 58773.8
129689 207241 54204.2
140774 205774 62789.8
129083 210363 33837.4
112390 201774 45773.8
113310 197157 59749.4
119774 198522 65773.8
130881 201806 66397.8
[...]
CELL_DATA 1581
SCALARS radius float
LOOKUP_TABLE default
100
100
100
100
92.9635
92.9635
89.6332
89.6332
89.6332
89.6332
86.4222
86.4222
86.4222
86.4222
83.3262
83.3262
86.4222
86.4222
83.3262
83.3262
80.3411
80.3411
80.3411
80.3411
74.6879
74.6879
83.3262
83.3262
74.6879
74.6879
80.3411
80.3411
72.0123
72.0123
77.463
77.463
74.6879
74.6879
77.463
77.463
69.4326
69.4326
74.6879
74.6879
80.3411
80.3411
66.9452
66.9452
77.463
77.463
77.463
77.463
66.9452
66.9452
64.547
64.547
72.0123
72.0123
72.0123
72.0123
72.0123
72.0123
66.9452
66.9452
74.6879
74.6879
69.4326
69.4326
74.6879
74.6879
72.0123
72.0123
62.2346
62.2346
69.4326
69.4326
69.4326
69.4326
57.8555
57.8555
64.547
64.547
69.4326
69.4326
66.9452
66.9452
69.4326
69.4326
55.7829
55.7829
66.9452
66.9452
64.547
64.547
64.547
64.547
66.9452
66.9452
64.547
64.547
66.9452
66.9452
64.547
64.547
72.0123
72.0123
69.4326
69.4326
62.2346
62.2346
66.9452
66.9452
64.547
64.547
62.2346
62.2346
60.0051
60.0051
69.4326
69.4326
62.2346
62.2346
60.0051
60.0051
60.0051
60.0051
60.0051
60.0051
60.0051
60.0051
69.4326
69.4326
62.2346
62.2346
57.8555
57.8555
57.8555
57.8555
55.7829
55.7829
64.547
64.547
60.0051
60.0051
64.547
64.547
64.547
64.547
60.0051
60.0051
57.8555
57.8555
53.7845
53.7845
51.8578
51.8578
66.9452
66.9452
57.8555
57.8555
57.8555
57.8555
57.8555
57.8555
62.2346
62.2346
55.7829
55.7829
50
50
55.7829
55.7829
60.0051
60.0051
64.547
64.547
55.7829
55.7829
62.2346
62.2346
53.7845
53.7845
62.2346
62.2346
62.2346
62.2346
62.2346
62.2346
60.0051
60.0051
55.7829
55.7829
53.7845
53.7845
60.0051
60.0051
53.7845
53.7845
51.8578
51.8578
53.7845
53.7845
48.2088
48.2088
57.8555
57.8555
60.0051
60.0051
64.547
64.547
53.7845
53.7845
51.8578
51.8578
53.7845
53.7845
50
50
50
50
51.8578
51.8578
53.7845
53.7845
55.7829
55.7829
44.8166
44.8166
55.7829
55.7829
57.8555
57.8555
51.8578
51.8578
57.8555
57.8555
50
50
53.7845
53.7845
60.0051
60.0051
51.8578
51.8578
53.7845
53.7845
60.0051
60.0051
50
50
48.2088
48.2088
57.8555
57.8555
43.2111
43.2111
57.8555
57.8555
51.8578
51.8578
53.7845
53.7845
50
50
51.8578
51.8578
62.2346
62.2346
48.2088
48.2088
50
50
53.7845
53.7845
51.8578
51.8578
51.8578
51.8578
51.8578
51.8578
57.8555
57.8555
50
50
46.4818
46.4818
48.2088
48.2088
51.8578
51.8578
48.2088
48.2088
50
50
53.7845
53.7845
48.2088
48.2088
60.0051
60.0051
46.4818
46.4818
44.8166
44.8166
55.7829
55.7829
44.8166
44.8166
50
50
48.2088
48.2088
44.8166
44.8166
43.2111
43.2111
44.8166
44.8166
50
50
46.4818
46.4818
57.8555
57.8555
46.4818
46.4818
46.4818
46.4818
50
50
50
50
43.2111
43.2111
43.2111
43.2111
51.8578
51.8578
46.4818
46.4818
55.7829
55.7829
41.6631
41.6631
46.4818
46.4818
41.6631
41.6631
51.8578
51.8578
53.7845
53.7845
44.8166
44.8166
51.8578
51.8578
41.6631
41.6631
48.2088
48.2088
46.4818
46.4818
40.1706
40.1706
44.8166
44.8166
55.7829
55.7829
40.1706
40.1706
51.8578
51.8578
51.8578
51.8578
44.8166
44.8166
48.2088
48.2088
50
50
43.2111
43.2111
38.7315
38.7315
53.7845
53.7845
43.2111
43.2111
44.8166
44.8166
55.7829
55.7829
41.6631
41.6631
40.1706
40.1706
41.6631
41.6631
40.1706
40.1706
55.7829
55.7829
38.7315
38.7315
40.1706
40.1706
40.1706
40.1706
37.344
37.344
38.7315
38.7315
37.344
37.344
44.8166
44.8166
38.7315
38.7315
37.344
37.344
37.344
37.344
37.344
37.344
50
50
51.8578
51.8578
57.8555
57.8555
34.7163
34.7163
38.7315
38.7315
46.4818
46.4818
48.2088
48.2088
44.8166
44.8166
96.4176
96.4176
86.4222
86.4222
83.3262
83.3262
80.3411
80.3411
83.3262
83.3262
77.463
77.463
74.6879
74.6879
83.3262
83.3262
80.3411
80.3411
83.3262
83.3262
69.4326
69.4326
80.3411
80.3411
80.3411
80.3411
77.463
77.463
80.3411
80.3411
77.463
77.463
74.6879
74.6879
72.0123
72.0123
77.463
77.463
77.463
77.463
77.463
77.463
72.0123
72.0123
77.463
77.463
74.6879
74.6879
74.6879
74.6879
72.0123
72.0123
74.6879
74.6879
69.4326
69.4326
74.6879
74.6879
77.463
77.463
69.4326
69.4326
72.0123
72.0123
66.9452
66.9452
72.0123
72.0123
69.4326
69.4326
69.4326
69.4326
74.6879
74.6879
72.0123
72.0123
64.547
64.547
66.9452
66.9452
66.9452
66.9452
62.2346
62.2346
62.2346
62.2346
66.9452
66.9452
69.4326
69.4326
64.547
64.547
69.4326
69.4326
66.9452
66.9452
72.0123
72.0123
69.4326
69.4326
69.4326
69.4326
60.0051
60.0051
64.547
64.547
66.9452
66.9452
66.9452
66.9452
66.9452
66.9452
62.2346
62.2346
66.9452
66.9452
72.0123
72.0123
62.2346
62.2346
66.9452
66.9452
66.9452
66.9452
66.9452
66.9452
74.6879
74.6879
64.547
64.547
66.9452
66.9452
64.547
64.547
60.0051
60.0051
60.0051
60.0051
60.0051
60.0051
62.2346
62.2346
53.7845
53.7845
69.4326
69.4326
60.0051
60.0051
60.0051
60.0051
62.2346
62.2346
57.8555
57.8555
57.8555
57.8555
53.7845
53.7845
60.0051
60.0051
57.8555
57.8555
51.8578
51.8578
57.8555
57.8555
55.7829
55.7829
64.547
64.547
57.8555
57.8555
51.8578
51.8578
53.7845
53.7845
57.8555
57.8555
57.8555
57.8555
62.2346
62.2346
62.2346
62.2346
55.7829
55.7829
50
50
55.7829
55.7829
57.8555
57.8555
55.7829
55.7829
62.2346
62.2346
55.7829
55.7829
57.8555
57.8555
55.7829
55.7829
55.7829
55.7829
53.7845
53.7845
60.0051
60.0051
60.0051
60.0051
64.547
64.547
62.2346
62.2346
62.2346
62.2346
55.7829
55.7829
62.2346
62.2346
55.7829
55.7829
53.7845
53.7845
53.7845
53.7845
48.2088
48.2088
53.7845
53.7845
50
50
62.2346
62.2346
53.7845
53.7845
57.8555
57.8555
53.7845
53.7845
57.8555
57.8555
53.7845
53.7845
50
50
51.8578
51.8578
48.2088
48.2088
51.8578
51.8578
51.8578
51.8578
62.2346
62.2346
51.8578
51.8578
50
50
55.7829
55.7829
51.8578
51.8578
57.8555
57.8555
46.4818
46.4818
57.8555
57.8555
60.0051
60.0051
51.8578
51.8578
48.2088
48.2088
50
50
55.7829
55.7829
53.7845
53.7845
60.0051
60.0051
50
50
60.0051
60.0051
48.2088
48.2088
50
50
57.8555
57.8555
50
50
46.4818
46.4818
55.7829
55.7829
43.2111
43.2111
55.7829
55.7829
50
50
41.6631
41.6631
50
50
57.8555
57.8555
55.7829
55.7829
46.4818
46.4818
48.2088
48.2088
48.2088
48.2088
48.2088
48.2088
55.7829
55.7829
48.2088
48.2088
50
50
55.7829
55.7829
48.2088
48.2088
48.2088
48.2088
55.7829
55.7829
50
50
51.8578
51.8578
44.8166
44.8166
53.7845
53.7845
44.8166
44.8166
51.8578
51.8578
41.6631
41.6631
46.4818
46.4818
46.4818
46.4818
55.7829
55.7829
40.1706
40.1706
57.8555
57.8555
43.2111
43.2111
53.7845
53.7845
41.6631
41.6631
48.2088
48.2088
46.4818
46.4818
46.4818
46.4818
48.2088
48.2088
44.8166
44.8166
50
50
44.8166
44.8166
43.2111
43.2111
43.2111
43.2111
43.2111
43.2111
48.2088
48.2088
53.7845
53.7845
44.8166
44.8166
44.8166
44.8166
41.6631
41.6631
41.6631
41.6631
46.4818
46.4818
50
50
40.1706
40.1706
43.2111
43.2111
46.4818
46.4818
46.4818
46.4818
53.7845
53.7845
43.2111
43.2111
48.2088
48.2088
44.8166
44.8166
38.7315
38.7315
41.6631
41.6631
51.8578
51.8578
46.4818
46.4818
38.7315
38.7315
43.2111
43.2111
44.8166
44.8166
44.8166
44.8166
46.4818
46.4818
37.344
37.344
51.8578
51.8578
41.6631
41.6631
44.8166
44.8166
48.2088
48.2088
46.4818
46.4818
40.1706
40.1706
38.7315
38.7315
40.1706
40.1706
37.344
37.344
36.0062
36.0062
36.0062
36.0062
36.0062
36.0062
38.7315
38.7315
43.2111
43.2111
44.8166
44.8166
50
50
36.0062
36.0062
36.0062
36.0062
33.4726
33.4726
36.0062
36.0062
44.8166
44.8166
46.4818
46.4818
44.8166
44.8166
92.9635
92.9635
89.6332
89.6332
86.4222
86.4222
72.0123
72.0123
74.6879
74.6879
80.3411
80.3411
66.9452
66.9452
77.463
77.463
72.0123
72.0123
77.463
77.463
77.463
77.463
64.547
64.547
72.0123
72.0123
72.0123
72.0123
74.6879
74.6879
69.4326
69.4326
74.6879
74.6879
69.4326
69.4326
74.6879
74.6879
66.9452
66.9452
69.4326
69.4326
72.0123
72.0123
66.9452
66.9452
64.547
64.547
64.547
64.547
74.6879
74.6879
69.4326
69.4326
72.0123
72.0123
66.9452
66.9452
72.0123
72.0123
66.9452
66.9452
72.0123
72.0123
64.547
64.547
69.4326
69.4326
62.2346
62.2346
62.2346
62.2346
74.6879
74.6879
69.4326
69.4326
62.2346
62.2346
64.547
64.547
72.0123
72.0123
74.6879
74.6879
62.2346
62.2346
62.2346
62.2346
66.9452
66.9452
72.0123
72.0123
62.2346
62.2346
64.547
64.547
57.8555
57.8555
66.9452
66.9452
62.2346
62.2346
60.0051
60.0051
62.2346
62.2346
64.547
64.547
64.547
64.547
60.0051
60.0051
60.0051
60.0051
69.4326
69.4326
62.2346
62.2346
57.8555
57.8555
57.8555
57.8555
57.8555
57.8555
64.547
64.547
62.2346
62.2346
57.8555
57.8555
66.9452
66.9452
60.0051
60.0051
64.547
64.547
64.547
64.547
72.0123
72.0123
62.2346
62.2346
64.547
64.547
64.547
64.547
55.7829
55.7829
62.2346
62.2346
62.2346
62.2346
60.0051
60.0051
57.8555
57.8555
60.0051
60.0051
64.547
64.547
55.7829
55.7829
57.8555
57.8555
60.0051
60.0051
60.0051
60.0051
64.547
64.547
53.7845
53.7845
55.7829
55.7829
50
50
64.547
64.547
57.8555
57.8555
60.0051
60.0051
57.8555
57.8555
66.9452
66.9452
55.7829
55.7829
62.2346
62.2346
55.7829
55.7829
51.8578
51.8578
57.8555
57.8555
55.7829
55.7829
53.7845
53.7845
53.7845
53.7845
48.2088
48.2088
53.7845
53.7845
51.8578
51.8578
51.8578
51.8578
51.8578
51.8578
57.8555
57.8555
57.8555
57.8555
51.8578
51.8578
51.8578
51.8578
55.7829
55.7829
55.7829
55.7829
50
50
60.0051
60.0051
51.8578
51.8578
57.8555
57.8555
55.7829
55.7829
46.4818
46.4818
48.2088
48.2088
48.2088
48.2088
57.8555
57.8555
48.2088
48.2088
48.2088
48.2088
46.4818
46.4818
50
50
57.8555
57.8555
53.7845
53.7845
50
50
46.4818
46.4818
50
50
57.8555
57.8555
51.8578
51.8578
50
50
44.8166
44.8166
41.6631
41.6631
44.8166
44.8166
60.0051
60.0051
48.2088
48.2088
60.0051
60.0051
57.8555
57.8555
50
50
57.8555
57.8555
53.7845
53.7845
40.1706
40.1706
53.7845
53.7845
46.4818
46.4818
53.7845
53.7845
57.8555
57.8555
40.1706
40.1706
46.4818
46.4818
55.7829
55.7829
55.7829
55.7829
46.4818
46.4818
53.7845
53.7845
38.7315
38.7315
55.7829
55.7829
48.2088
48.2088
44.8166
44.8166
55.7829
55.7829
41.6631
41.6631
53.7845
53.7845
50
50
53.7845
53.7845
48.2088
48.2088
55.7829
55.7829
43.2111
43.2111
53.7845
53.7845
46.4818
46.4818
50
50
48.2088
48.2088
55.7829
55.7829
46.4818
46.4818
53.7845
53.7845
46.4818
46.4818
48.2088
48.2088
43.2111
43.2111
48.2088
48.2088
48.2088
48.2088
44.8166
44.8166
41.6631
41.6631
46.4818
46.4818
50
50
44.8166
44.8166
43.2111
43.2111
48.2088
48.2088
46.4818
46.4818
43.2111
43.2111
46.4818
46.4818
41.6631
41.6631
100
96.4176
96.4176
89.6332
89.6332
86.4222
86.4222
83.3262
83.3262
92.9635
92.9635
80.3411
80.3411
86.4222
86.4222
83.3262
83.3262
77.463
77.463
80.3411
80.3411
80.3411
80.3411
77.463
77.463
74.6879
74.6879
74.6879
74.6879
77.463
77.463
72.0123
72.0123
72.0123
72.0123
72.0123
72.0123
69.4326
69.4326
69.4326
69.4326
66.9452
66.9452
69.4326
69.4326
66.9452
66.9452
66.9452
66.9452
64.547
64.547
64.547
64.547
74.6879
74.6879
74.6879
74.6879
62.2346
62.2346
64.547
64.547
62.2346
62.2346
64.547
64.547
60.0051
60.0051
62.2346
62.2346
60.0051
60.0051
72.0123
72.0123
62.2346
62.2346
57.8555
57.8555
60.0051
60.0051
55.7829
55.7829
62.2346
62.2346
60.0051
60.0051
69.4326
69.4326
53.7845
53.7845
53.7845
53.7845
55.7829
55.7829
57.8555
57.8555
66.9452
66.9452
57.8555
57.8555
55.7829
55.7829
60.0051
60.0051
60.0051
60.0051
51.8578
51.8578
60.0051
60.0051
57.8555
57.8555
55.7829
55.7829
51.8578
51.8578
55.7829
55.7829
53.7845
53.7845
53.7845
53.7845
57.8555
57.8555
50
50
50
50
55.7829
55.7829
51.8578
51.8578
53.7845
53.7845
51.8578
51.8578
51.8578
51.8578
46.4818
46.4818
53.7845
53.7845
50
50
50
50
48.2088
48.2088
44.8166
44.8166
48.2088
48.2088
46.4818
46.4818
43.2111
43.2111
41.6631
41.6631
50
50
48.2088
48.2088
48.2088
48.2088
40.1706
40.1706
50
50
46.4818
46.4818
46.4818
46.4818
44.8166
44.8166
46.4818
46.4818
44.8166
44.8166
38.7315
38.7315
44.8166
44.8166
43.2111
43.2111
44.8166
44.8166
43.2111
43.2111
41.6631
41.6631
36.0062
36.0062
34.7163
34.7163
46.4818
46.4818
43.2111
43.2111
40.1706
40.1706
48.2088
48.2088
40.1706
40.1706
43.2111
43.2111
41.6631
41.6631
37.344
37.344
41.6631
41.6631
40.1706
40.1706
38.7315
38.7315
46.4818
46.4818
38.7315
38.7315
37.344
37.344
36.0062
36.0062
44.8166
44.8166
36.0062
36.0062
37.344
37.344
34.7163
34.7163
34.7163
34.7163
38.7315
38.7315
37.344
37.344
36.0062
36.0062
33.4726
33.4726
33.4726
33.4726
34.7163
34.7163
33.4726
33.4726
33.4726
33.4726
32.2735
32.2735
36.0062
36.0062
34.7163
34.7163
32.2735
32.2735
32.2735
32.2735
31.1173
31.1173
33.4726
33.4726
31.1173
31.1173
32.2735
32.2735
69.4326
69.4326
89.6332
89.6332
86.4222
86.4222
83.3262
83.3262
77.463
77.463
83.3262
83.3262
