# vtk DataFile Version 3.0
Tree
ASCII
DATASET POLYDATA
POINTS 1582 float
162774 225274 273.8
162774 225274 10273.8
141774 225774 23773.8
135774 213962 30773.8
137574 217505 28673.8
134774 208050 53773.8
136286 213156 40219.8
116774 204034 45773.8
135227 209582 49707.8
154006 199774 65773.8
134910 208509 52553.8
119774 197830 67773.8
119289 203520 46659
105574 194774 52773.8
126736 202742 60772.6
134774 196014 81773.8
148623 201862 63692.2
151774 195774 81889.8
152391 200400 65149.4
170098 180774 72773.8
119971 197898 66863.4
103774 186034 78773.8
164786 186662 70486.6
171966 182774 92773.8
107683 194352 52847.8
93513.8 180774 61773.8
119833 197850 67500.6
117774 191942 84773.8
168504 182540 72087.4
174058 164774 66773.8
133882 198163 80373.4
140774 195998 100774
118890 193825 82350.2
121774 193998 100774
104021 186624 76755.4
90773.8 177974 81773.8
172392 170104 68367.8
171006 159774 50773.8
103848 186211 78168.2
104774 188050 95773.8
171886 181218 89561.8
179886 172774 106774
94729.4 180639 60877.4
81661.8 164774 68773.8
137168 196691 97885.8
135774 195998 113774
173558 166373 67252.2
180002 147774 73773.8
92213 177886 81462.6
80773.8 167774 86397.8
119735 194060 97864.2
112774 194774 115522
139692 196206 99907.4
157078 193774 103774
177575 152603 70159
178774 135774 64257.8
169756 182851 83839.4
181998 159774 87773.8
178301 172814 102547
183998 156774 109774
91205.4 177947 81680.6
85773.8 179270 99773.8
114862 194559 110225
100774 192002 112774
137662 196240 109613
145774 195998 123774
151862 194503 102614
160774 190070 93773.8
179517 147891 73059.4
183994 133774 79773.8
136340 196071 112525
125774 197998 127774
113392 195131 115099
110774 197986 128774
155635 193519 104302
165774 189294 111774
178507 136541 63717.8
179194 122774 57773.8
182256 137735 76548.6
182774 126774 73521.8
85239 169462 83768.2
77533.8 148774 82773.8
181548 163111 109326
183998 152774 128774
182749 157766 110385
183998 140774 115774
178308 161172 88838.2
183998 142774 93773.8
143443 196063 122330
144774 195998 140774
79845.4 154980 83072.2
81773.8 138774 66653.8
178878 129107 60508.2
176774 127774 43977.8
86989.4 176532 93416.6
77773.8 163774 109938
80538.6 167601 104981
77545.8 150774 102774
85919.4 178566 99508.6
83773.8 181090 113774
111901 197494 127182
113774 199978 143774
145075 196017 123341
159074 193774 128774
144162 196028 132290
131774 198002 140774
183056 152905 124503
181994 133774 135774
179411 172786 105506
177230 177774 118774
180135 128587 48708.2
185774 128774 37257.8
78227.4 150636 82863.4
79537.8 136774 92773.8
183715 152813 127493
183998 156774 142774
82375 139583 69787.8
85573.8 127774 63773.8
182679 142971 128206
183022 129774 122774
111112 197838 128296
101134 193774 139774
84773 180084 111628
86773.8 178774 125958
85533.4 179586 117073
91773.8 189254 123774
143839 196119 139506
139974 196774 157774
112568 198454 140834
108774 193886 154774
182199 136533 133503
179814 137774 151774
176803 177687 115891
169978 186774 123774
78922.6 158514 103789
80773.8 148222 115774
182055 134601 135093
178050 120774 131774
154832 194197 128692
163774 191186 141774
79039.8 142041 89007.8
81765.8 128774 82773.8
177102 177748 117909
181978 167774 123774
140517 196889 147897
129774 199978 153774
80070.2 152133 111220
81485.8 138774 108774
182065 130637 123672
179998 117774 119774
78603.4 164922 108451
82773.8 165774 123966
181484 136905 138985
175838 124774 146774
82839.4 166621 122665
87773.8 169774 137050
179413 136490 148443
172774 130774 159958
104127 194993 136331
94773.8 187958 134774
183610 155425 140890
181774 154774 158790
109238 193564 152005
104774 182774 161882
79885.8 137499 91294.6
83553.8 125774 93773.8
108913 193789 153943
115774 193014 166774
85966.6 129138 63379.4
91545.8 115774 53773.8
160376 192330 136803
154774 192774 147954
81954.2 139017 67594.2
85549.8 137774 54773.8
140275 196665 157067
141082 195774 171774
85691.4 128183 63655.4
90321.8 111774 73773.8
106470 186874 158129
97589.8 176774 153774
173619 131057 156963
166006 121774 160774
84319.4 167567 126980
86525.8 156774 135774
179757 119019 119621
176774 107522 114774
83294.2 127513 92684.2
88773.8 115582 90773.8
113716 193247 162925
123590 198774 164774
178113 122687 132886
170774 107774 133318
88773.8 118410 68023
93485.8 108774 63773.8
183675 153805 132584
182014 165774 136774
80834.6 144919 109899
85497.8 136774 119774
172571 183321 120779
173978 182774 134774
83475.8 126295 93447
86773.8 121662 102774
115156 193083 165619
114774 183774 175242
175667 126105 144841
168774 115666 148774
86985 168021 134494
90773.8 162774 143970
170117 126787 158716
164774 127774 171114
181089 155822 156697
177230 157774 171774
84837.4 137399 117107
89773.8 125530 119774
101675 181420 155777
101554 166774 163774
173027 130859 159059
172774 137774 167326
85511 161739 131729
84329.8 149774 127774
141912 195246 167047
149030 189774 174774
89266.2 116633 91480.6
94773.8 107574 90773.8
114889 186567 172355
108774 175774 171958
176739 109049 115943
170774 96253.8 113774
86656.2 121809 100535
92293.8 113774 104774
140387 196768 152849
149890 192774 158774
178696 157032 166045
175222 147774 171774
102032 194140 138741
97537.8 184774 145774
141602 195142 171183
141774 193186 184774
177417 158295 170010
174062 163774 176774
90699.4 113087 71456.2
97773.8 100774 74881.8
182593 161725 136707
181998 166774 146774
166222 122268 159913
157270 112774 159774
91539 114887 103209
97773.8 106234 101774
174472 104187 115119
175846 99773.8 105774
86738.6 121706 102102
90309.8 119774 111774
171567 97768.6 113297
169310 91773.8 107774
94731.8 105789 72278.6
97773.8 98773.8 66809.8
161499 116577 158854
159982 110774 152774
97201.8 100248 67021.4
99553.8 95773.8 57773.8
175153 105645 115366
167774 98281.8 123774
86713.4 132889 118121
93773.8 129774 133970
165231 128443 169699
158774 131574 183774
176264 150551 170055
169990 151774 185774
102111 167153 161737
102774 154774 165970
173381 149653 175967
167774 141774 181970
92067.4 114108 104305
100130 107774 114774
111097 179875 172109
114774 167774 183970
171012 96708.2 113631
163138 89773.8 116774
174496 162276 176243
168774 166774 189890
102363 162449 163346
107626 159774 174774
175185 99948.2 107177
173774 92509.8 97773.8
96902.2 107526 101181
103574 98773.8 94773.8
92707.4 129355 130099
99773.8 120774 136886
163565 190829 141309
170774 185774 150882
171094 165820 183472
167774 173774 185962
148988 193292 157229
161774 188774 159166
169144 92259.4 108145
163774 83681.8 99773.8
102081 100612 94963.8
105774 95025.8 83773.8
181583 166531 145456
177890 174774 156774
98811.4 108504 111807
106262 100774 113774
146895 191415 172455
156774 187774 168906
170176 151765 184931
165810 154774 196774
97602.2 99215.8 66873.4
105774 88773.8 66881.8
168313 100216 123323
161266 96773.8 131774
99939.4 108286 114521
103574 108774 123774
93962.6 129840 133648
99005.8 131774 145774
169284 144811 180961
164542 143774 189774
106785 159516 172812
111774 152774 182802
104027 103093 113184
107574 96773.8 104774
173163 93284.2 98822.6
169978 86773.8 90773.8
94827.4 126781 132135
97773.8 116774 126890
168937 186579 149682
171558 181774 160774
105608 89599.8 66569.4
112186 82773.8 65773.8
165815 86941.4 102955
155774 81561.8 105774
109878 155336 179006
111510 144774 177774
163555 84765.8 100836
154774 79549.8 95773.8
171793 181631 158345
175394 175774 164774
167941 170773 186010
158774 176774 193954
148605 189771 174599
153774 183774 181970
105591 101469 113597
112686 97773.8 120774
172207 91331 96408.2
176774 93517.8 84773.8
97720.2 132372 143620
99549.8 139774 153774
169636 87529 92325.8
161966 80773.8 87773.8
103590 107898 121795
112774 103738 132774
111695 153735 182425
117030 151774 191774
112017 82998.2 65468.6
119102 75773.8 63773.8
169875 87000.2 91239.4
170774 83773.8 82893.8
98854.6 136961 149915
94773.8 148386 149774
110119 104602 128371
116774 99509.8 128774
111020 147943 178143
117462 140774 186774
99456.6 121296 135614
104294 115774 137774
171629 181731 160045
167214 181774 171774
111659 144990 177962
114358 134774 177774
99737.4 138844 153235
103026 141774 161774
175774 92123 86655
178442 87773.8 75773.8
113116 139473 177861
110774 133590 168774
164764 82578.2 87983.4
162774 76773.8 77889.8
112685 104045 132369
118774 103774 140886
117336 141374 186663
122534 136774 193774
115641 100082 127965
121518 93773.8 123774
113985 136184 177800
120774 130310 183774
93585.8 129695 132583
91449.8 142774 138774
163691 77231 79029.8
163774 71773.8 70425.8
119967 95089.4 124065
121774 91005.8 117774
116947 103855 138331
115130 109774 145774
114246 135197 177782
117774 126774 173326
111555 144839 177830
106774 144774 169894
86706.6 157274 135425
89773.8 150774 141082
116434 99681.4 128531
125594 96773.8 134774
121448 138944 192579
127774 140774 203014
118796 103815 140547
125586 103774 147774
122117 92201 120199
129774 87001.8 115774
102843 117431 137126
108254 116774 145774
124586 104347 147194
129774 105774 153962
107788 117264 145121
112774 117774 153326
129563 87686.6 116350
137774 83505.8 112774
98620.2 131953 145128
105774 125090 151774
126734 89402.2 117813
136734 87773.8 124774
128217 105346 151931
125774 111774 159986
129711 87207.4 115947
127774 85021.8 107774
96155.8 146475 150679
96773.8 156774 155970
111567 118336 152449
113774 122774 162890
156805 82736.6 104733
143774 79577.8 103774
146032 80703.8 103333
134774 81529.8 98773.8
110291 134964 169441
106374 131774 160774
124546 96999 132973
135774 92773.8 133954
112935 121087 158923
119774 117774 163962
118461 118949 163695
123586 119774 171774
120409 119262 166765
128438 114774 167774
123060 119955 171281
127774 122346 180774
138834 219986 27203.8
145106 211774 35773.8
136314 215025 30143.8
126774 209934 32773.8
143366 213851 34884.6
144774 210774 45949.8
126201 208873 40964.6
120774 207778 38773.8
145443 210937 44319.8
148774 207838 52773.8
121916 205554 44495
122774 205774 52805.8
148828 207691 51778.6
152774 203774 58881.8
122053 204997 50810.2
119774 200774 59329.8
134815 208188 53407.8
[...]
CELL_DATA 1581
SCALARS radius float
LOOKUP_TABLE default
100
100
100
100
92.9635
92.9635
89.6332
89.6332
86.4222
86.4222
83.3262
83.3262
80.3411
80.3411
80.3411
80.3411
83.3262
83.3262
80.3411
80.3411
77.463
77.463
77.463
77.463
74.6879
74.6879
74.6879
74.6879
72.0123
72.0123
77.463
77.463
72.0123
72.0123
74.6879
74.6879
66.9452
66.9452
72.0123
72.0123
72.0123
72.0123
72.0123
72.0123
74.6879
74.6879
64.547
64.547
72.0123
72.0123
69.4326
69.4326
72.0123
72.0123
60.0051
60.0051
74.6879
74.6879
69.4326
69.4326
69.4326
69.4326
66.9452
66.9452
72.0123
72.0123
66.9452
66.9452
57.8555
57.8555
69.4326
69.4326
64.547
64.547
64.547
64.547
53.7845
53.7845
55.7829
55.7829
69.4326
69.4326
66.9452
66.9452
64.547
64.547
62.2346
62.2346
69.4326
69.4326
66.9452
66.9452
50
50
66.9452
66.9452
64.547
64.547
64.547
64.547
62.2346
62.2346
66.9452
66.9452
66.9452
66.9452
64.547
64.547
66.9452
66.9452
48.2088
48.2088
64.547
64.547
62.2346
62.2346
64.547
64.547
62.2346
62.2346
57.8555
57.8555
57.8555
57.8555
55.7829
55.7829
64.547
64.547
60.0051
60.0051
60.0051
60.0051
64.547
64.547
62.2346
62.2346
57.8555
57.8555
64.547
64.547
62.2346
62.2346
62.2346
62.2346
62.2346
62.2346
60.0051
60.0051
57.8555
57.8555
62.2346
62.2346
57.8555
57.8555
57.8555
57.8555
55.7829
55.7829
53.7845
53.7845
57.8555
57.8555
57.8555
57.8555
60.0051
60.0051
55.7829
55.7829
62.2346
62.2346
62.2346
62.2346
62.2346
62.2346
57.8555
57.8555
60.0051
60.0051
55.7829
55.7829
53.7845
53.7845
55.7829
55.7829
55.7829
55.7829
57.8555
57.8555
51.8578
51.8578
53.7845
53.7845
53.7845
53.7845
60.0051
60.0051
57.8555
57.8555
62.2346
62.2346
55.7829
55.7829
50
50
53.7845
53.7845
53.7845
53.7845
51.8578
51.8578
53.7845
53.7845
55.7829
55.7829
53.7845
53.7845
51.8578
51.8578
53.7845
53.7845
55.7829
55.7829
53.7845
53.7845
48.2088
48.2088
51.8578
51.8578
53.7845
53.7845
60.0051
60.0051
51.8578
51.8578
51.8578
51.8578
53.7845
53.7845
50
50
51.8578
51.8578
55.7829
55.7829
50
50
51.8578
51.8578
48.2088
48.2088
51.8578
51.8578
46.4818
46.4818
50
50
46.4818
46.4818
48.2088
48.2088
50
50
53.7845
53.7845
48.2088
48.2088
50
50
51.8578
51.8578
48.2088
48.2088
50
50
44.8166
44.8166
44.8166
44.8166
46.4818
46.4818
50
50
46.4818
46.4818
50
50
51.8578
51.8578
60.0051
60.0051
43.2111
43.2111
55.7829
55.7829
44.8166
44.8166
48.2088
48.2088
53.7845
53.7845
48.2088
48.2088
53.7845
53.7845
44.8166
44.8166
46.4818
46.4818
46.4818
46.4818
46.4818
46.4818
48.2088
48.2088
46.4818
46.4818
48.2088
48.2088
44.8166
44.8166
43.2111
43.2111
50
50
57.8555
57.8555
43.2111
43.2111
41.6631
41.6631
46.4818
46.4818
40.1706
40.1706
53.7845
53.7845
41.6631
41.6631
51.8578
51.8578
43.2111
43.2111
41.6631
41.6631
46.4818
46.4818
40.1706
40.1706
44.8166
44.8166
44.8166
44.8166
40.1706
40.1706
38.7315
38.7315
44.8166
44.8166
43.2111
43.2111
44.8166
44.8166
46.4818
46.4818
51.8578
51.8578
43.2111
43.2111
41.6631
41.6631
40.1706
40.1706
41.6631
41.6631
38.7315
38.7315
41.6631
41.6631
43.2111
43.2111
41.6631
41.6631
40.1706
40.1706
50
50
37.344
37.344
40.1706
40.1706
40.1706
40.1706
38.7315
38.7315
41.6631
41.6631
51.8578
51.8578
40.1706
40.1706
38.7315
38.7315
38.7315
38.7315
38.7315
38.7315
44.8166
44.8166
37.344
37.344
41.6631
41.6631
36.0062
36.0062
44.8166
44.8166
37.344
37.344
36.0062
36.0062
34.7163
34.7163
43.2111
43.2111
40.1706
40.1706
38.7315
38.7315
37.344
37.344
40.1706
40.1706
38.7315
38.7315
38.7315
38.7315
37.344
37.344
34.7163
34.7163
33.4726
33.4726
96.4176
96.4176
89.6332
89.6332
92.9635
92.9635
86.4222
86.4222
89.6332
89.6332
83.3262
83.3262
86.4222
86.4222
77.463
77.463
80.3411
80.3411
74.6879
74.6879
77.463
77.463
77.463
77.463
80.3411
80.3411
74.6879
74.6879
77.463
77.463
72.0123
72.0123
69.4326
69.4326
69.4326
69.4326
66.9452
66.9452
72.0123
72.0123
69.4326
69.4326
72.0123
72.0123
64.547
64.547
74.6879
74.6879
62.2346
62.2346
69.4326
69.4326
66.9452
66.9452
69.4326
69.4326
69.4326
69.4326
62.2346
62.2346
72.0123
72.0123
57.8555
57.8555
66.9452
66.9452
60.0051
60.0051
66.9452
66.9452
57.8555
57.8555
55.7829
55.7829
62.2346
62.2346
66.9452
66.9452
66.9452
66.9452
64.547
64.547
69.4326
69.4326
69.4326
69.4326
53.7845
53.7845
64.547
64.547
55.7829
55.7829
60.0051
60.0051
66.9452
66.9452
60.0051
60.0051
57.8555
57.8555
62.2346
62.2346
62.2346
62.2346
60.0051
60.0051
57.8555
57.8555
60.0051
60.0051
66.9452
66.9452
62.2346
62.2346
62.2346
62.2346
57.8555
57.8555
64.547
64.547
57.8555
57.8555
55.7829
55.7829
64.547
64.547
57.8555
57.8555
66.9452
66.9452
55.7829
55.7829
69.4326
69.4326
64.547
64.547
60.0051
60.0051
55.7829
55.7829
60.0051
60.0051
48.2088
48.2088
57.8555
57.8555
60.0051
60.0051
62.2346
62.2346
60.0051
60.0051
62.2346
62.2346
60.0051
60.0051
60.0051
60.0051
62.2346
62.2346
46.4818
46.4818
62.2346
62.2346
60.0051
60.0051
55.7829
55.7829
64.547
64.547
60.0051
60.0051
46.4818
46.4818
55.7829
55.7829
55.7829
55.7829
60.0051
60.0051
62.2346
62.2346
60.0051
60.0051
50
50
53.7845
53.7845
57.8555
57.8555
60.0051
60.0051
60.0051
60.0051
53.7845
53.7845
55.7829
55.7829
55.7829
55.7829
60.0051
60.0051
55.7829
55.7829
50
50
51.8578
51.8578
60.0051
60.0051
53.7845
53.7845
55.7829
55.7829
55.7829
55.7829
53.7845
53.7845
60.0051
60.0051
51.8578
51.8578
57.8555
57.8555
53.7845
53.7845
60.0051
60.0051
60.0051
60.0051
57.8555
57.8555
51.8578
51.8578
57.8555
57.8555
55.7829
55.7829
53.7845
53.7845
57.8555
57.8555
51.8578
51.8578
55.7829
55.7829
53.7845
53.7845
50
50
51.8578
51.8578
55.7829
55.7829
51.8578
51.8578
53.7845
53.7845
55.7829
55.7829
57.8555
57.8555
57.8555
57.8555
51.8578
51.8578
50
50
55.7829
55.7829
50
50
50
50
50
50
50
50
50
50
50
50
51.8578
51.8578
55.7829
55.7829
50
50
53.7845
53.7845
60.0051
60.0051
48.2088
48.2088
51.8578
51.8578
55.7829
55.7829
48.2088
48.2088
53.7845
53.7845
48.2088
48.2088
48.2088
48.2088
41.6631
41.6631
48.2088
48.2088
51.8578
51.8578
44.8166
44.8166
51.8578
51.8578
43.2111
43.2111
43.2111
43.2111
44.8166
44.8166
48.2088
48.2088
55.7829
55.7829
50
50
46.4818
46.4818
40.1706
40.1706
44.8166
44.8166
55.7829
55.7829
44.8166
44.8166
48.2088
48.2088
44.8166
44.8166
48.2088
48.2088
53.7845
53.7845
46.4818
46.4818
43.2111
43.2111
44.8166
44.8166
55.7829
55.7829
46.4818
46.4818
46.4818
46.4818
44.8166
44.8166
44.8166
44.8166
43.2111
43.2111
41.6631
41.6631
44.8166
44.8166
41.6631
41.6631
38.7315
38.7315
38.7315
38.7315
43.2111
43.2111
37.344
37.344
48.2088
48.2088
41.6631
41.6631
50
50
41.6631
41.6631
40.1706
40.1706
37.344
37.344
44.8166
44.8166
36.0062
36.0062
50
50
41.6631
41.6631
43.2111
43.2111
46.4818
46.4818
41.6631
41.6631
38.7315
38.7315
38.7315
38.7315
50
50
43.2111
43.2111
41.6631
41.6631
37.344
37.344
40.1706
40.1706
50
50
40.1706
40.1706
38.7315
38.7315
40.1706
40.1706
41.6631
41.6631
37.344
37.344
48.2088
48.2088
38.7315
38.7315
48.2088
48.2088
50
50
36.0062
36.0062
43.2111
43.2111
50
50
34.7163
34.7163
48.2088
48.2088
34.7163
34.7163
38.7315
38.7315
36.0062
36.0062
38.7315
38.7315
34.7163
34.7163
33.4726
33.4726
48.2088
48.2088
32.2735
32.2735
36.0062
36.0062
36.0062
36.0062
33.4726
33.4726
86.4222
86.4222
86.4222
86.4222
83.3262
83.3262
74.6879
74.6879
83.3262
83.3262
80.3411
80.3411
72.0123
72.0123
74.6879
74.6879
74.6879
74.6879
77.463
77.463
72.0123
72.0123
66.9452
66.9452
74.6879
74.6879
77.463
77.463
66.9452
66.9452
74.6879
74.6879
74.6879
74.6879
64.547
64.547
74.6879
74.6879
62.2346
62.2346
64.547
64.547
69.4326
69.4326
60.0051
60.0051
66.9452
66.9452
69.4326
69.4326
64.547
64.547
66.9452
66.9452
64.547
64.547
66.9452
66.9452
66.9452
66.9452
62.2346
62.2346
60.0051
60.0051
64.547
64.547
69.4326
69.4326
64.547
64.547
64.547
64.547
64.547
64.547
62.2346
62.2346
64.547
64.547
57.8555
57.8555
62.2346
62.2346
62.2346
62.2346
55.7829
55.7829
55.7829
55.7829
60.0051
60.0051
60.0051
60.0051
57.8555
57.8555
53.7845
53.7845
55.7829
55.7829
60.0051
60.0051
51.8578
51.8578
66.9452
66.9452
57.8555
57.8555
55.7829
55.7829
64.547
64.547
64.547
64.547
62.2346
62.2346
60.0051
60.0051
62.2346
62.2346
57.8555
57.8555
55.7829
55.7829
51.8578
51.8578
64.547
64.547
55.7829
55.7829
57.8555
57.8555
57.8555
57.8555
62.2346
62.2346
60.0051
60.0051
53.7845
53.7845
62.2346
62.2346
55.7829
55.7829
57.8555
57.8555
60.0051
60.0051
60.0051
60.0051
53.7845
53.7845
57.8555
57.8555
57.8555
57.8555
57.8555
57.8555
55.7829
55.7829
55.7829
55.7829
57.8555
57.8555
64.547
64.547
60.0051
60.0051
53.7845
53.7845
57.8555
57.8555
51.8578
51.8578
53.7845
53.7845
57.8555
57.8555
55.7829
55.7829
57.8555
57.8555
57.8555
57.8555
51.8578
51.8578
55.7829
55.7829
48.2088
48.2088
51.8578
51.8578
53.7845
53.7845
51.8578
51.8578
62.2346
62.2346
57.8555
57.8555
55.7829
55.7829
62.2346
62.2346
53.7845
53.7845
57.8555
57.8555
53.7845
53.7845
46.4818
46.4818
53.7845
53.7845
51.8578
51.8578
55.7829
55.7829
50
50
51.8578
51.8578
60.0051
60.0051
50
50
46.4818
46.4818
51.8578
51.8578
55.7829
55.7829
48.2088
48.2088
50
50
48.2088
48.2088
48.2088
48.2088
51.8578
51.8578
51.8578
51.8578
50
50
46.4818
46.4818
55.7829
55.7829
48.2088
48.2088
53.7845
53.7845
48.2088
48.2088
53.7845
53.7845
55.7829
55.7829
57.8555
57.8555
53.7845
53.7845
48.2088
48.2088
51.8578
51.8578
51.8578
51.8578
50
50
55.7829
55.7829
51.8578
51.8578
46.4818
46.4818
53.7845
53.7845
48.2088
48.2088
44.8166
44.8166
50
50
51.8578
51.8578
50
50
46.4818
46.4818
46.4818
46.4818
51.8578
51.8578
46.4818
46.4818
46.4818
46.4818
48.2088
48.2088
50
50
43.2111
43.2111
44.8166
44.8166
46.4818
46.4818
50
50
48.2088
48.2088
57.8555
57.8555
46.4818
46.4818
55.7829
55.7829
44.8166
44.8166
50
50
51.8578
51.8578
46.4818
46.4818
57.8555
57.8555
46.4818
46.4818
43.2111
43.2111
48.2088
48.2088
53.7845
53.7845
44.8166
44.8166
48.2088
48.2088
43.2111
43.2111
50
50
43.2111
43.2111
46.4818
46.4818
41.6631
41.6631
44.8166
44.8166
43.2111
43.2111
51.8578
51.8578
40.1706
40.1706
51.8578
51.8578
46.4818
46.4818
43.2111
43.2111
57.8555
57.8555
41.6631
41.6631
41.6631
41.6631
46.4818
46.4818
38.7315
38.7315
38.7315
38.7315
37.344
37.344
37.344
37.344
51.8578
51.8578
40.1706
40.1706
43.2111
43.2111
36.0062
36.0062
51.8578
51.8578
100
96.4176
96.4176
89.6332
89.6332
86.4222
86.4222
80.3411
80.3411
92.9635
92.9635
77.463
77.463
86.4222
86.4222
74.6879
74.6879
83.3262
83.3262
72.0123
72.0123
80.3411
80.3411
77.463
77.463
74.6879
74.6879
69.4326
69.4326
72.0123
72.0123
69.4326
69.4326
72.0123
72.0123
66.9452
66.9452
64.547
64.547
66.9452
66.9452
69.4326
69.4326
62.2346
62.2346
64.547
64.547
60.0051
60.0051
66.9452
66.9452
66.9452
66.9452
62.2346
62.2346
57.8555
57.8555
64.547
64.547
60.0051
60.0051
64.547
64.547
62.2346
62.2346
69.4326
69.4326
57.8555
57.8555
62.2346
62.2346
55.7829
55.7829
62.2346
62.2346
57.8555
57.8555
57.8555
57.8555
60.0051
60.0051
55.7829
55.7829
55.7829
55.7829
66.9452
66.9452
64.547
64.547
53.7845
53.7845
53.7845
53.7845
51.8578
51.8578
53.7845
53.7845
60.0051
60.0051
57.8555
57.8555
51.8578
51.8578
55.7829
55.7829
50
50
51.8578
51.8578
50
50
57.8555
57.8555
48.2088
48.2088
53.7845
53.7845
51.8578
51.8578
48.2088
48.2088
50
50
51.8578
51.8578
46.4818
46.4818
51.8578
51.8578
46.4818
46.4818
44.8166
44.8166
44.8166
44.8166
43.2111
43.2111
43.2111
43.2111
48.2088
48.2088
48.2088
48.2088
50
50
41.6631
41.6631
43.2111
43.2111
41.6631
41.6631
41.6631
41.6631
41.6631
41.6631
40.1706
40.1706
43.2111
43.2111
46.4818
46.4818
38.7315
38.7315
40.1706
40.1706
48.2088
48.2088
46.4818
46.4818
40.1706
40.1706
40.1706
40.1706
38.7315
38.7315
38.7315
38.7315
37.344
37.344
36.0062
36.0062
37.344
37.344
38.7315
38.7315
36.0062
36.0062
44.8166
44.8166
41.6631
41.6631
43.2111
43.2111
40.1706
40.1706
37.344
37.344
34.7163
34.7163
34.7163
34.7163
41.6631
41.6631
33.4726
33.4726
37.344
37.344
32.2735
32.2735
36.0062
36.0062
38.7315
38.7315
31.1173
31.1173
40.1706
40.1706
32.2735
32.2735
30.0026
30.0026
30.0026
30.0026
38.7315
38.7315
28.9278
28.9278
31.1173
31.1173
27.8914
27.8914
27.8914
27.8914
30.0026
30.0026
37.344
37.344
28.9278
28.9278
26.8923
26.8923
26.8923
26.8923
27.8914
27.8914
36.0062
36.0062
25.9289
25.9289
34.7163
34.7163
26.8923
26.8923
25.9289
25.9289
25
25
25.9289
25.9289
33.4726
33.4726
62.2346
62.2346
60.0051
60.0051
92.9635
92.9635
83.3262
83.3262
83.3262
83.3262
80.3411
80.3411
83.3262
83.3262
77.463
77.463
74.6879
74.6879
