# vtk DataFile Version 3.0
Tree
ASCII
DATASET POLYDATA
POINTS 1582 float
162774 225274 273.8
162774 225274 10273.8
141774 225774 23773.8
135122 214198 30497.8
137117 217671 28480.6
136774 208774 53889.8
136987 214290 38136.2
116774 203986 46773.8
136838 210429 49163.8
154006 199774 65773.8
122838 207077 44182.6
119774 197774 67933.8
117328 203778 46707
105574 194774 52773.8
150127 200943 65028.2
159774 191774 82093.8
117674 198514 62808.6
108774 189786 76773.8
119823 197624 67677.4
127774 194006 84773.8
127091 195551 78930.2
142774 196002 85773.8
155336 195992 74243.8
173814 173774 69773.8
159749 192187 80493.4
173226 181774 94773.8
111444 192404 72584.2
93573.8 180774 68773.8
167651 181690 73158.2
175990 174774 82773.8
170670 175851 69679.8
173806 159774 56773.8
127569 194469 83020.6
117590 192774 100774
122180 193554 92607.4
106774 188006 92773.8
136814 195831 83173
138774 195998 107774
98935 184263 69917
88773.8 175978 84773.8
172614 165883 61678.2
177970 149774 68773.8
170814 181746 94124.2
180014 169774 108774
93447.8 179789 77939.8
81589.8 165774 74773.8
173149 161281 57076.6
172774 151774 43873.8
119222 193493 99875.4
117774 195962 114774
159766 191898 81613.8
155774 193978 101774
173905 174955 79548.2
181942 158774 83773.8
177254 173365 104379
183774 157078 101774
88915.8 176445 84468.6
80773.8 171962 95773.8
118079 192989 100504
101650 191774 109774
139143 195958 106350
141774 195998 123774
177360 152303 68397.8
183942 136774 79773.8
179335 147645 71810.6
179966 127774 62773.8
181823 141774 76110.6
183998 143774 89773.8
181296 163267 102764
183998 152774 117774
182971 156761 112070
183774 163066 124774
84507 166898 75068.6
79557.8 146774 70773.8
82465 166111 74862.2
77449.8 154774 84773.8
82272.2 171606 93423.8
75773.8 160774 100790
158783 192521 96397.8
167290 188774 113774
81223.4 171855 95068.6
84773.8 181878 108774
116765 195555 112851
107774 197814 129774
161339 191419 105752
155774 194014 119774
117471 195840 114197
124774 198002 131774
139532 196202 121508
136774 196774 135594
111181 197502 126605
114774 199946 139774
139403 196388 130542
147082 195774 142774
166289 188719 111106
175014 181774 114774
179489 131943 62693.8
177774 119234 44773.8
179211 126035 51795
182774 128774 39885.8
183690 153970 116063
182046 134774 133774
182933 145140 124210
183998 132774 119774
183345 143174 85675
183998 133774 95773.8
183161 147789 121766
183998 147774 138774
183747 147778 133671
183998 158774 141774
79390.6 156642 81250.6
78773.8 139774 84385.8
81732.6 149547 71233.4
85545.8 127774 65773.8
159315 192444 115705
163970 190774 133774
78958.6 144834 83445
79525.8 139774 99773.8
78576.2 163445 100029
79545.8 152774 113774
144778 195958 139104
139074 197774 157774
83387 176713 105558
85773.8 175774 127898
183923 147775 137243
179774 135774 149894
108796 197720 128823
93773.8 191222 125774
104289 195771 127908
97773.8 191322 136774
79487.4 154115 109783
80997.8 141774 111774
113696 199213 135823
108218 190774 157774
181764 136302 130426
177814 119774 133774
162518 191455 131964
162774 191774 142798
170302 185525 112793
171978 184774 122774
183902 154595 138695
181982 152774 155774
108204 192469 147313
100342 184774 151774
85076.2 133093 65427.8
89545.8 123774 52773.8
141241 197084 150679
126774 200002 153774
84191.8 173070 118647
83533.8 164774 126774
179631 127377 132234
179774 115774 119886
85885.4 128667 65317.4
89681.8 114774 63773.8
139057 197619 157258
134774 197998 167774
179415 137334 147721
169210 123774 158774
85920.2 174572 126463
90773.8 173950 140774
175786 131355 150713
173178 120774 147774
78829.4 141292 84103.8
85485.8 122774 90773.8
108292 190112 156365
108774 182774 167882
84073 138029 67169.4
86353.8 134774 53773.8
108240 190575 157351
117774 193774 167990
88239 120053 64360.2
89553.8 113774 73773.8
177599 120690 133498
172774 111658 134774
81784.6 142643 111697
85533.8 130774 113774
137772 197733 160413
144774 193890 169774
87490.2 173032 132092
87773.8 164774 139074
171311 126987 157025
167774 127774 166434
87688.6 167251 136979
86153.8 154774 133774
179179 116039 120866
177774 106774 112802
89249 116357 63949.8
93549.8 110774 50773.8
108513 186736 161663
101542 172774 161774
179666 136242 149242
175842 138774 162774
85817.8 175413 127467
91525.8 182774 133774
181481 154477 153949
177998 156774 168774
108696 183963 166016
116774 185974 174774
173053 122371 148287
167254 111774 145774
102626 176122 159778
97445.8 168774 154774
168377 126595 162575
161218 121774 167774
85396.2 125005 88359.4
92773.8 109578 89773.8
127507 198406 153210
115774 198774 155158
85459 123443 90049.4
90361.8 115774 103774
111119 184566 168643
112774 176774 176030
174065 113575 133347
169938 102774 127774
90031.8 114571 70759
96253.8 103774 75773.8
163534 190978 133231
177870 178774 139774
169345 124549 157742
161326 115774 158774
92396.2 110468 72664.6
96317.8 101774 64773.8
142303 196746 147207
151774 192022 157774
167289 127389 165605
161774 129994 176774
81095.4 146085 111123
87449.8 138774 126774
142198 195079 168317
143878 192774 182774
175621 138446 162101
171774 139774 171970
89543.4 117302 98550.2
96773.8 107518 100774
86079 139233 121296
93545.8 123774 126774
183661 158377 141010
181886 168774 145774
177146 108057 115355
169774 92773.8 110882
177932 154919 166830
173782 152774 178774
102381 173361 161596
103590 164774 167774
175027 153417 175191
171830 145774 177774
136393 197855 163799
125774 199946 164774
175898 153868 172682
172774 163774 181958
162697 191678 139548
169774 187234 144774
92907.4 111375 90274.2
99573.8 102774 92773.8
150337 193021 154501
159774 190050 154774
93447.8 112019 99751
97997.8 109774 112774
173001 100848 114548
165974 94773.8 120774
86006.2 131772 113669
91505.8 120774 115774
112327 177198 174867
112774 164774 181970
177585 107159 113568
176050 98773.8 100774
96022.6 103056 67184.2
101774 94165.8 66773.8
169841 94113.8 111297
164026 86773.8 106774
100049 96833 66897
101774 92165.8 58773.8
162979 130219 175905
159774 133774 186434
91305.8 128411 125131
97773.8 126774 138970
144001 194247 169337
154774 187998 169774
174155 152967 177699
167774 153494 191774
104216 165129 166983
107554 153774 173774
181737 166947 145747
177402 175774 154774
172374 161724 181783
167774 167774 191934
170519 106039 130285
163774 99089.8 131774
98921.8 103909 91959
107774 94289.8 91773.8
159381 189803 154967
169158 185774 155774
175726 99571 103528
170774 88297.8 95773.8
97493.8 109511 108636
105774 102282 115774
165060 100082 130672
159950 92773.8 126774
98340.6 109639 112203
102282 109774 123774
160976 93992.2 126495
157774 88773.8 121322
101736 94704.6 67013.8
108774 86773.8 67969.8
165001 88017 106595
159774 81497.8 96773.8
96245 128698 137006
99705.8 131774 147774
168404 166916 188383
160774 176774 191946
107873 155099 173824
111554 148774 179774
105199 97164.2 90578.6
111514 90773.8 82773.8
177773 173897 154405
173774 179158 163774
106591 88822.6 66627.8
110774 81581.8 60773.8
173052 93483.4 99341
175990 92773.8 86773.8
102022 108887 120284
110282 103774 127774
143239 193649 177281
151774 184550 181774
93435 125068 126907
99633.8 118774 132774
162985 84130.2 98462.2
163774 81585.8 88773.8
96229.4 102159 65497
97485.8 100774 54773.8
164318 87146.6 106720
156774 83593.8 111774
97914.2 131991 143704
97537.8 142774 151774
161714 174275 191660
152774 177934 196774
110244 150094 176935
113506 138774 177774
109519 83754.2 62529.8
118578 77773.8 66773.8
113213 166868 181450
116774 155774 191954
98321 135572 147573
101546 136774 155774
174974 177579 160963
173774 172774 172970
112005 143981 177388
117462 140774 186774
164555 82642.6 90904.6
171330 82773.8 79773.8
116954 156891 190932
119662 150774 196774
108821 105326 127151
115774 105002 137774
174134 178684 162931
166774 181774 172886
97898.2 139461 149841
91773.8 148774 144802
109843 104239 127587
118774 97517.8 127774
111477 145815 177252
108774 136774 167958
166588 82681.8 87565.4
162774 76773.8 77889.8
112523 102223 127643
114774 95773.8 118894
115825 141736 183958
120358 131774 184774
109585 139486 170746
113774 130006 170774
110304 141891 173219
103774 144774 165250
164503 77844.2 79365.8
167774 73025.8 69773.8
117464 140921 186513
124374 137774 196774
117286 98348.2 126888
123774 91685.8 121774
114109 105882 136667
117774 107774 145962
168481 180520 171466
164774 178774 181946
87030.2 139848 125100
89445.8 144774 134774
115795 106752 140943
124774 102342 143774
118327 97767 127508
125594 96773.8 134774
119771 151585 196037
125662 144774 202774
117180 107467 144456
113774 114338 150774
123378 92506.2 121730
129774 87001.8 115774
116158 109529 146351
107774 115570 143774
122471 104166 143903
130774 104346 151774
88150.6 165057 138691
90773.8 157774 143970
128515 88724.6 118279
136774 85545.8 118774
113717 114080 149929
108774 121774 153266
126924 105168 149536
128774 110774 159962
132975 87008.2 118546
137774 81601.8 108774
90515.8 160043 143355
95489.8 155774 152774
110726 119641 153149
110358 125774 160774
129396 87518.6 116525
127658 84773.8 106774
123655 91931.8 121761
135774 89773.8 129026
129123 85282.6 109067
133774 81545.8 98773.8
94542.6 157487 151211
98317.8 159774 159774
113757 114261 150520
118310 118774 163774
124777 96696.6 132952
133774 94305.8 135774
117374 115189 156572
122774 113706 160774
118860 117659 162513
124578 119774 172774
128610 110419 159647
129774 114310 167774
138514 220101 27068.6
143774 212006 33773.8
135721 215240 29892.6
126282 209774 32773.8
142774 213919 33503.4
146774 210058 44773.8
143974 212761 36884.6
129774 208002 51773.8
146760 210283 44209.4
149926 207774 51773.8
131496 207645 51215.8
126774 204774 57889.8
136899 208801 53717.4
137542 205774 61773.8
128189 205129 57091.8
127774 201774 65061.8
151291 200593 65251.8
155958 200774 59773.8
113517 200539 49894.2
112774 198010 57773.8
137121 205891 60746.2
135774 200774 69969.8
153429 199551 65787.8
159774 195202 67773.8
136178 202309 67202.6
141774 200774 71953.8
136055 200930 69813.8
136774 198054 75773.8
112194 198302 55451
106774 193774 60881.8
[...]
CELL_DATA 1581
SCALARS radius float
LOOKUP_TABLE default
100
100
100
100
92.9635
92.9635
89.6332
89.6332
86.4222
86.4222
86.4222
86.4222
83.3262
83.3262
83.3262
83.3262
83.3262
83.3262
80.3411
80.3411
77.463
77.463
80.3411
80.3411
77.463
77.463
80.3411
80.3411
74.6879
74.6879
72.0123
72.0123
74.6879
74.6879
72.0123
72.0123
74.6879
74.6879
77.463
77.463
66.9452
66.9452
74.6879
74.6879
74.6879
74.6879
64.547
64.547
69.4326
69.4326
74.6879
74.6879
69.4326
69.4326
72.0123
72.0123
72.0123
72.0123
66.9452
66.9452
69.4326
69.4326
64.547
64.547
62.2346
62.2346
60.0051
60.0051
69.4326
69.4326
66.9452
66.9452
72.0123
72.0123
69.4326
69.4326
69.4326
69.4326
69.4326
69.4326
66.9452
66.9452
66.9452
66.9452
64.547
64.547
64.547
64.547
66.9452
66.9452
64.547
64.547
64.547
64.547
60.0051
60.0051
57.8555
57.8555
51.8578
51.8578
64.547
64.547
60.0051
60.0051
57.8555
57.8555
62.2346
62.2346
60.0051
60.0051
66.9452
66.9452
66.9452
66.9452
62.2346
62.2346
64.547
64.547
66.9452
66.9452
62.2346
62.2346
64.547
64.547
57.8555
57.8555
62.2346
62.2346
60.0051
60.0051
64.547
64.547
62.2346
62.2346
55.7829
55.7829
57.8555
57.8555
57.8555
57.8555
57.8555
57.8555
60.0051
60.0051
62.2346
62.2346
57.8555
57.8555
62.2346
62.2346
53.7845
53.7845
60.0051
60.0051
53.7845
53.7845
55.7829
55.7829
60.0051
60.0051
53.7845
53.7845
62.2346
62.2346
57.8555
57.8555
64.547
64.547
55.7829
55.7829
57.8555
57.8555
50
50
60.0051
60.0051
51.8578
51.8578
57.8555
57.8555
51.8578
51.8578
55.7829
55.7829
51.8578
51.8578
55.7829
55.7829
55.7829
55.7829
53.7845
53.7845
57.8555
57.8555
53.7845
53.7845
51.8578
51.8578
51.8578
51.8578
53.7845
53.7845
50
50
60.0051
60.0051
50
50
57.8555
57.8555
50
50
48.2088
48.2088
55.7829
55.7829
55.7829
55.7829
48.2088
48.2088
53.7845
53.7845
60.0051
60.0051
48.2088
48.2088
62.2346
62.2346
50
50
48.2088
48.2088
55.7829
55.7829
60.0051
60.0051
55.7829
55.7829
50
50
50
50
51.8578
51.8578
44.8166
44.8166
50
50
46.4818
46.4818
53.7845
53.7845
55.7829
55.7829
55.7829
55.7829
53.7845
53.7845
48.2088
48.2088
51.8578
51.8578
46.4818
46.4818
48.2088
48.2088
51.8578
51.8578
46.4818
46.4818
50
50
44.8166
44.8166
57.8555
57.8555
48.2088
48.2088
43.2111
43.2111
50
50
51.8578
51.8578
44.8166
44.8166
44.8166
44.8166
51.8578
51.8578
51.8578
51.8578
44.8166
44.8166
51.8578
51.8578
43.2111
43.2111
50
50
41.6631
41.6631
48.2088
48.2088
44.8166
44.8166
53.7845
53.7845
43.2111
43.2111
46.4818
46.4818
48.2088
48.2088
50
50
46.4818
46.4818
43.2111
43.2111
48.2088
48.2088
48.2088
48.2088
55.7829
55.7829
43.2111
43.2111
50
50
43.2111
43.2111
50
50
40.1706
40.1706
44.8166
44.8166
43.2111
43.2111
43.2111
43.2111
48.2088
48.2088
48.2088
48.2088
41.6631
41.6631
41.6631
41.6631
41.6631
41.6631
46.4818
46.4818
46.4818
46.4818
46.4818
46.4818
44.8166
44.8166
43.2111
43.2111
40.1706
40.1706
43.2111
43.2111
40.1706
40.1706
40.1706
40.1706
41.6631
41.6631
38.7315
38.7315
38.7315
38.7315
41.6631
41.6631
44.8166
44.8166
44.8166
44.8166
57.8555
57.8555
43.2111
43.2111
40.1706
40.1706
38.7315
38.7315
41.6631
41.6631
38.7315
38.7315
40.1706
40.1706
41.6631
41.6631
53.7845
53.7845
37.344
37.344
38.7315
38.7315
40.1706
40.1706
36.0062
36.0062
50
50
37.344
37.344
36.0062
36.0062
37.344
37.344
34.7163
34.7163
48.2088
48.2088
37.344
37.344
37.344
37.344
36.0062
36.0062
34.7163
34.7163
36.0062
36.0062
96.4176
96.4176
89.6332
89.6332
92.9635
92.9635
89.6332
89.6332
86.4222
86.4222
86.4222
86.4222
83.3262
83.3262
83.3262
83.3262
80.3411
80.3411
77.463
77.463
80.3411
80.3411
77.463
77.463
77.463
77.463
74.6879
74.6879
74.6879
74.6879
74.6879
74.6879
77.463
77.463
72.0123
72.0123
77.463
77.463
69.4326
69.4326
74.6879
74.6879
69.4326
69.4326
77.463
77.463
72.0123
72.0123
74.6879
74.6879
66.9452
66.9452
69.4326
69.4326
69.4326
69.4326
69.4326
69.4326
74.6879
74.6879
66.9452
66.9452
72.0123
72.0123
66.9452
66.9452
62.2346
62.2346
69.4326
69.4326
66.9452
66.9452
60.0051
60.0051
69.4326
69.4326
69.4326
69.4326
69.4326
69.4326
62.2346
62.2346
66.9452
66.9452
66.9452
66.9452
64.547
64.547
66.9452
66.9452
57.8555
57.8555
64.547
64.547
64.547
64.547
62.2346
62.2346
69.4326
69.4326
62.2346
62.2346
69.4326
69.4326
60.0051
60.0051
60.0051
60.0051
60.0051
60.0051
66.9452
66.9452
60.0051
60.0051
57.8555
57.8555
60.0051
60.0051
57.8555
57.8555
66.9452
66.9452
62.2346
62.2346
66.9452
66.9452
64.547
64.547
57.8555
57.8555
60.0051
60.0051
64.547
64.547
64.547
64.547
57.8555
57.8555
62.2346
62.2346
64.547
64.547
62.2346
62.2346
64.547
64.547
55.7829
55.7829
55.7829
55.7829
50
50
64.547
64.547
62.2346
62.2346
55.7829
55.7829
64.547
64.547
62.2346
62.2346
62.2346
62.2346
62.2346
62.2346
64.547
64.547
55.7829
55.7829
60.0051
60.0051
48.2088
48.2088
60.0051
60.0051
62.2346
62.2346
60.0051
60.0051
57.8555
57.8555
62.2346
62.2346
55.7829
55.7829
53.7845
53.7845
55.7829
55.7829
60.0051
60.0051
57.8555
57.8555
55.7829
55.7829
57.8555
57.8555
55.7829
55.7829
55.7829
55.7829
46.4818
46.4818
60.0051
60.0051
60.0051
60.0051
55.7829
55.7829
53.7845
53.7845
57.8555
57.8555
57.8555
57.8555
60.0051
60.0051
62.2346
62.2346
51.8578
51.8578
60.0051
60.0051
53.7845
53.7845
53.7845
53.7845
55.7829
55.7829
53.7845
53.7845
53.7845
53.7845
51.8578
51.8578
57.8555
57.8555
57.8555
57.8555
53.7845
53.7845
57.8555
57.8555
51.8578
51.8578
51.8578
51.8578
51.8578
51.8578
50
50
55.7829
55.7829
51.8578
51.8578
50
50
62.2346
62.2346
53.7845
53.7845
51.8578
51.8578
55.7829
55.7829
48.2088
48.2088
60.0051
60.0051
53.7845
53.7845
46.4818
46.4818
48.2088
48.2088
53.7845
53.7845
51.8578
51.8578
51.8578
51.8578
46.4818
46.4818
53.7845
53.7845
60.0051
60.0051
44.8166
44.8166
50
50
46.4818
46.4818
48.2088
48.2088
48.2088
48.2088
46.4818
46.4818
48.2088
48.2088
48.2088
48.2088
43.2111
43.2111
51.8578
51.8578
46.4818
46.4818
48.2088
48.2088
43.2111
43.2111
46.4818
46.4818
48.2088
48.2088
48.2088
48.2088
53.7845
53.7845
44.8166
44.8166
43.2111
43.2111
46.4818
46.4818
53.7845
53.7845
50
50
50
50
55.7829
55.7829
41.6631
41.6631
51.8578
51.8578
43.2111
43.2111
48.2088
48.2088
44.8166
44.8166
48.2088
48.2088
53.7845
53.7845
50
50
43.2111
43.2111
43.2111
43.2111
51.8578
51.8578
41.6631
41.6631
46.4818
46.4818
40.1706
40.1706
41.6631
41.6631
41.6631
41.6631
50
50
50
50
41.6631
41.6631
44.8166
44.8166
48.2088
48.2088
41.6631
41.6631
48.2088
48.2088
48.2088
48.2088
40.1706
40.1706
48.2088
48.2088
41.6631
41.6631
38.7315
38.7315
38.7315
38.7315
46.4818
46.4818
44.8166
44.8166
51.8578
51.8578
41.6631
41.6631
44.8166
44.8166
40.1706
40.1706
38.7315
38.7315
53.7845
53.7845
40.1706
40.1706
41.6631
41.6631
46.4818
46.4818
46.4818
46.4818
40.1706
40.1706
38.7315
38.7315
40.1706
40.1706
40.1706
40.1706
38.7315
38.7315
43.2111
43.2111
44.8166
44.8166
44.8166
44.8166
43.2111
43.2111
55.7829
55.7829
37.344
37.344
38.7315
38.7315
38.7315
38.7315
38.7315
38.7315
37.344
37.344
40.1706
40.1706
50
50
48.2088
48.2088
40.1706
40.1706
38.7315
38.7315
48.2088
48.2088
36.0062
36.0062
37.344
37.344
38.7315
38.7315
34.7163
34.7163
34.7163
34.7163
36.0062
36.0062
46.4818
46.4818
33.4726
33.4726
34.7163
34.7163
33.4726
33.4726
38.7315
38.7315
33.4726
33.4726
32.2735
32.2735
33.4726
33.4726
32.2735
32.2735
86.4222
86.4222
86.4222
86.4222
83.3262
83.3262
83.3262
83.3262
83.3262
83.3262
77.463
77.463
80.3411
80.3411
80.3411
80.3411
77.463
77.463
72.0123
72.0123
72.0123
72.0123
80.3411
80.3411
72.0123
72.0123
74.6879
74.6879
66.9452
66.9452
64.547
64.547
69.4326
69.4326
74.6879
74.6879
72.0123
72.0123
62.2346
62.2346
72.0123
72.0123
72.0123
72.0123
74.6879
74.6879
72.0123
72.0123
72.0123
72.0123
72.0123
72.0123
64.547
64.547
66.9452
66.9452
72.0123
72.0123
64.547
64.547
66.9452
66.9452
64.547
64.547
64.547
64.547
66.9452
66.9452
64.547
64.547
60.0051
60.0051
62.2346
62.2346
62.2346
62.2346
62.2346
62.2346
64.547
64.547
64.547
64.547
64.547
64.547
57.8555
57.8555
60.0051
60.0051
55.7829
55.7829
66.9452
66.9452
66.9452
66.9452
66.9452
66.9452
62.2346
62.2346
57.8555
57.8555
57.8555
57.8555
57.8555
57.8555
64.547
64.547
53.7845
53.7845
66.9452
66.9452
57.8555
57.8555
62.2346
62.2346
72.0123
72.0123
62.2346
62.2346
64.547
64.547
64.547
64.547
62.2346
62.2346
64.547
64.547
55.7829
55.7829
60.0051
60.0051
53.7845
53.7845
57.8555
57.8555
60.0051
60.0051
64.547
64.547
55.7829
55.7829
51.8578
51.8578
60.0051
60.0051
60.0051
60.0051
62.2346
62.2346
57.8555
57.8555
50
50
60.0051
60.0051
62.2346
62.2346
60.0051
60.0051
55.7829
55.7829
60.0051
60.0051
55.7829
55.7829
60.0051
60.0051
46.4818
46.4818
53.7845
53.7845
55.7829
55.7829
55.7829
55.7829
44.8166
44.8166
53.7845
53.7845
51.8578
51.8578
55.7829
55.7829
53.7845
53.7845
57.8555
57.8555
57.8555
57.8555
50
50
57.8555
57.8555
51.8578
51.8578
60.0051
60.0051
53.7845
53.7845
51.8578
51.8578
53.7845
53.7845
55.7829
55.7829
60.0051
60.0051
57.8555
57.8555
48.2088
48.2088
57.8555
57.8555
55.7829
55.7829
50
50
53.7845
53.7845
53.7845
53.7845
53.7845
53.7845
50
50
57.8555
57.8555
46.4818
46.4818
51.8578
51.8578
44.8166
44.8166
53.7845
53.7845
55.7829
55.7829
55.7829
55.7829
43.2111
43.2111
51.8578
51.8578
57.8555
57.8555
50
50
60.0051
60.0051
50
50
51.8578
51.8578
53.7845
53.7845
46.4818
46.4818
50
50
50
50
50
50
50
50
51.8578
51.8578
46.4818
46.4818
55.7829
55.7829
46.4818
46.4818
57.8555
57.8555
44.8166
44.8166
43.2111
43.2111
53.7845
53.7845
46.4818
46.4818
50
50
46.4818
46.4818
46.4818
46.4818
51.8578
51.8578
46.4818
46.4818
46.4818
46.4818
51.8578
51.8578
46.4818
46.4818
55.7829
55.7829
46.4818
46.4818
48.2088
48.2088
51.8578
51.8578
44.8166
44.8166
44.8166
44.8166
44.8166
44.8166
57.8555
57.8555
41.6631
41.6631
48.2088
48.2088
43.2111
43.2111
50
50
43.2111
43.2111
46.4818
46.4818
43.2111
43.2111
48.2088
48.2088
50
50
40.1706
40.1706
44.8166
44.8166
40.1706
40.1706
50
50
46.4818
46.4818
43.2111
43.2111
44.8166
44.8166
38.7315
38.7315
55.7829
55.7829
46.4818
46.4818
50
50
53.7845
53.7845
46.4818
46.4818
41.6631
41.6631
48.2088
48.2088
46.4818
46.4818
40.1706
40.1706
51.8578
51.8578
40.1706
40.1706
50
50
44.8166
44.8166
40.1706
40.1706
37.344
37.344
46.4818
46.4818
43.2111
43.2111
100
96.4176
96.4176
89.6332
89.6332
86.4222
86.4222
80.3411
80.3411
92.9635
92.9635
83.3262
83.3262
83.3262
83.3262
80.3411
80.3411
77.463
77.463
80.3411
80.3411
77.463
77.463
74.6879
74.6879
77.463
77.463
74.6879
74.6879
74.6879
74.6879
69.4326
69.4326
72.0123
72.0123
72.0123
72.0123
66.9452
66.9452
69.4326
69.4326
69.4326
69.4326
72.0123
72.0123
66.9452
66.9452
64.547
64.547
62.2346
62.2346
66.9452
66.9452
64.547
64.547
60.0051
60.0051
69.4326
69.4326
57.8555
57.8555
64.547
64.547
64.547
64.547
57.8555
57.8555
55.7829
55.7829
72.0123
72.0123
62.2346
62.2346
55.7829
55.7829
62.2346
62.2346
69.4326
69.4326
53.7845
53.7845
53.7845
53.7845
51.8578
51.8578
50
50
60.0051
60.0051
66.9452
66.9452
60.0051
60.0051
60.0051
60.0051
51.8578
51.8578
53.7845
53.7845
57.8555
57.8555
48.2088
48.2088
57.8555
57.8555
55.7829
55.7829
48.2088
48.2088
55.7829
55.7829
53.7845
53.7845
51.8578
51.8578
46.4818
46.4818
50
50
48.2088
48.2088
44.8166
44.8166
46.4818
46.4818
53.7845
53.7845
51.8578
51.8578
43.2111
43.2111
46.4818
46.4818
50
50
44.8166
44.8166
43.2111
43.2111
41.6631
41.6631
40.1706
40.1706
38.7315
38.7315
41.6631
41.6631
50
50
40.1706
40.1706
40.1706
40.1706
48.2088
48.2088
38.7315
38.7315
38.7315
38.7315
48.2088
48.2088
46.4818
46.4818
43.2111
43.2111
38.7315
38.7315
37.344
37.344
37.344
37.344
36.0062
36.0062
37.344
37.344
37.344
37.344
44.8166
44.8166
43.2111
43.2111
44.8166
44.8166
36.0062
36.0062
34.7163
34.7163
34.7163
34.7163
43.2111
43.2111
41.6631
41.6631
41.6631
41.6631
33.4726
33.4726
40.1706
40.1706
32.2735
32.2735
40.1706
40.1706
34.7163
34.7163
31.1173
31.1173
30.0026
30.0026
40.1706
40.1706
30.0026
30.0026
28.9278
28.9278
33.4726
33.4726
28.9278
28.9278
27.8914
27.8914
38.7315
38.7315
32.2735
32.2735
27.8914
27.8914
26.8923
26.8923
31.1173
31.1173
26.8923
26.8923
37.344
37.344
30.0026
30.0026
25.9289
25.9289
28.9278
28.9278
25.9289
25.9289
27.8914
27.8914
30.0026
30.0026
36.0062
36.0062
25
25
28.9278
28.9278
66.9452
66.9452
64.547
64.547
86.4222
86.4222
77.463
77.463
77.463
77.463
80.3411
80.3411
77.463
77.463
77.463
77.463
74.6879
74.6879
83.3262
83.3262
74.6879
74.6879
72.0123
72.0123
69.4326
69.4326
