# vtk DataFile Version 3.0
Tree
ASCII
DATASET POLYDATA
POINTS 1582 float
162774 225274 273.8
162774 225274 10273.8
141774 225774 23773.8
135122 214198 30497.8
137117 217671 28480.6
134774 208002 54773.8
133637 213144 38141
116774 203986 46773.8
134433 209545 49783.8
154774 199774 64893.8
134671 208465 53277
119774 197774 67933.8
117685 203605 46381.8
105574 194774 52773.8
149562 201572 63320.6
156774 193774 82797.8
151725 199233 69163.8
168774 183954 69773.8
125435 201836 62364.2
133774 195774 85893.8
120036 197981 66916.6
104258 186774 77773.8
157231 193988 80460.2
169774 184774 92393.8
108991 190136 74516.6
94289.8 181774 66773.8
115839 195000 69804.6
117774 191942 84773.8
164977 185534 69329
174530 165774 67773.8
166504 186487 87570.2
177774 173978 87773.8
134469 198111 84277.4
142774 195998 102774
117531 193055 83392.2
119774 193998 103774
96863.8 182351 69424.2
84321.8 169774 70773.8
172383 166365 68349.4
177834 149774 67773.8
170161 172116 68643.4
169978 158774 47773.8
172589 179732 87680.2
179978 171774 108774
104644 187241 77792.6
89773.8 177866 89773.8
174018 161388 68176.6
180530 155774 79773.8
116810 193125 93379
106774 191194 103774
88037.8 173336 72261.4
79509.8 163774 84773.8
118317 193972 102236
116774 195998 118774
119337 193990 103312
131774 195998 114774
142631 196181 98199.8
157774 193230 105774
176786 153368 69487
182070 139774 78773.8
179217 147115 73759
180022 129774 65773.8
178546 171823 104199
183998 156774 116774
131279 195195 112989
147774 195998 124774
179191 136263 67308.6
176098 132774 56773.8
176136 174884 88433.4
181998 162774 92773.8
85436.6 170843 71220.2
79533.8 149774 71773.8
81146.6 166274 84689.8
75609.8 161774 98773.8
94235 180679 86179.4
87773.8 183774 107418
89400.6 180903 98195
79549.8 172774 106774
180695 164083 92161.8
183998 148774 96773.8
156008 192695 105590
168774 187946 113774
116427 195915 118241
113774 198018 135774
137547 195500 117467
135774 197218 133774
177026 133821 59934.2
179810 119774 55773.8
176631 132691 57098.6
175998 127774 45773.8
182526 158317 113799
183998 138774 119774
183556 157237 115881
183998 151774 134774
137977 196414 129467
147078 195774 143774
82428.2 155048 70040.2
85449.8 134774 60773.8
79042.6 164564 90041.8
77485.8 146774 93773.8
183865 153413 129106
182774 137590 134774
177448 129075 48645.4
184774 124774 37973.8
162902 190130 110009
163082 191774 127774
77628.6 162273 96979
79485.8 156774 112774
183106 150527 95248.6
183998 131774 94773.8
88063.4 182489 106217
85773.8 181774 121894
80402.2 151356 71253.8
79541.8 138774 81773.8
78780.2 158864 106772
79561.8 143774 109774
88496.6 184077 114335
91573.8 188774 121774
114570 197387 130514
100774 193250 139774
109965 195764 136271
108282 193774 153774
183899 152890 133877
183774 153774 149018
142163 196120 136048
133774 198014 152774
163036 191379 126870
163074 191774 139774
182403 143552 134717
176774 131578 151774
182624 140548 119032
180774 122774 123954
86590.6 182465 119626
83773.8 169774 127042
179515 171379 108401
181886 168774 122774
84927.8 138288 64255.8
87549.8 120774 67773.8
180861 128715 123912
176774 120774 135958
137579 197341 150565
137774 197774 164002
85295 176627 123037
89021.8 175774 135774
86284.6 131107 63878.2
89561.8 120774 54773.8
183561 152204 144105
181942 144774 151774
90404.6 186989 118947
102774 193962 117774
80335.8 140351 80193.4
83553.8 125774 90773.8
108105 192771 150040
103774 182774 160862
85485 136146 61149.4
87601.8 131774 50773.8
162974 190805 119114
173774 183258 126774
176165 133195 150480
169774 127090 161774
105766 187373 155884
111002 187774 165774
176591 132063 151386
171774 120330 149774
79327.4 148301 108873
83597.8 143774 122774
180399 124124 123226
177774 110774 118906
88578.6 123874 57505
91661.8 110774 60773.8
109431 187653 162807
120302 196774 165774
183115 152848 148045
179966 153774 162774
80259.4 144625 109803
85533.8 130774 113774
181503 168207 121534
183230 163774 134774
88169.4 122107 67895.4
91569.8 110774 73773.8
138309 197237 161882
141970 194774 174774
84126.6 126752 89074.6
88357.8 116774 93773.8
84882.2 170761 126542
87017.8 155774 135774
176211 121075 133451
170094 112774 140774
89625.8 120955 55186.6
93601.8 110774 47773.8
104371 184153 159369
98325.8 170774 157774
174376 118585 135648
171774 106686 130774
88121 174744 133357
89773.8 166774 143074
170012 127555 159000
163322 121774 164774
88751.4 175465 135049
95773.8 178774 148962
177905 112353 117945
175774 102774 112814
83725.8 126067 90264.2
85497.8 124774 102774
146268 195587 143232
150774 193774 154802
174319 131503 153036
173774 137774 165970
84678.2 134233 114101
89593.8 128774 123774
110531 187738 164884
115774 183190 176774
169845 127229 160942
165842 129774 171774
85522.6 166265 129312
81773.8 156774 124790
170988 113827 138673
165774 105774 138582
87973.8 118628 93780.6
93773.8 110774 102886
103953 183188 160414
107774 176878 170774
166399 124433 162118
161774 115106 157774
180248 154504 160477
175906 160774 174774
134314 197949 151787
123774 200002 153774
178945 156385 164766
175190 149774 172774
92305.8 112166 60847.8
97485.8 100774 64773.8
171336 184668 126806
177190 178774 141774
171487 108205 130654
167774 98513.8 124774
89713.8 116272 96512.2
95773.8 106290 92773.8
100139 174788 158252
102294 160774 165774
140463 195002 173773
140774 192774 185934
172828 136047 164351
169774 138774 174970
85757.8 124387 100516
90773.8 119518 110774
182587 165531 133019
181970 167774 147774
165793 128719 169969
157774 127146 179774
114218 183099 174197
114774 173774 181298
168949 100467 124961
169010 93773.8 114774
93237.4 111978 102320
97773.8 108774 111134
149332 193794 153902
150774 191774 164810
176026 152508 171389
171774 152774 182906
83895.4 143543 120846
89541.8 137774 131774
169521 95721 116010
172774 94773.8 103954
88749.8 138071 129129
94773.8 128774 133958
173274 150686 177061
169842 145774 181774
114607 176571 179167
110298 165774 177774
170757 95361 111429
165774 86533.8 104774
175868 160569 173908
169774 167774 187890
174411 181677 137515
171974 184774 148774
169419 137621 173757
165014 137774 182774
95869.8 107841 93429
104774 97569.8 89773.8
171600 184390 145393
163210 189774 152774
97297.8 108939 109123
103122 103774 113774
96967.4 102363 63153.8
103774 90157.8 60773.8
171861 184659 147760
177774 175774 154054
99977 106563 111263
101774 108282 119774
172829 95288.6 104653
175854 95773.8 95773.8
88119 130412 120872
93773.8 119774 121966
168127 99099.8 124830
160774 94209.8 127774
93847.4 131004 133916
99773.8 126774 142970
111377 166729 178150
109694 151774 177774
171584 152156 182334
165810 154774 196774
168939 186037 148994
168774 185774 156882
173979 95473 101279
169774 86301.8 92773.8
95625.4 129735 136632
96773.8 134226 143774
165408 87946.2 105223
158774 81489.8 98773.8
141518 194842 174474
150774 187774 176886
170299 167121 184519
161774 177010 190774
103459 98953.8 88703.4
110254 90773.8 81773.8
102372 93675.8 62611.4
110774 84773.8 67949.8
105478 96004.2 85162.2
104774 93661.8 76773.8
169545 184961 154455
173774 179158 163774
102129 107570 118736
107774 106514 128774
111263 159376 179226
114774 151594 186774
102889 104413 113814
111122 99773.8 121774
175536 95552.6 96140.2
177198 94773.8 87773.8
94495.8 129443 133945
99773.8 118410 132774
176144 94128.6 90719
174774 87773.8 83113.8
92754.2 112937 50928.2
97485.8 100774 51773.8
168912 87688.6 94375.4
161890 80773.8 88773.8
108533 86769.4 65127
115774 76773.8 61133.8
163102 173563 190732
156774 176002 197774
96603.8 134210 143132
97773.8 142774 152966
113721 153929 184509
114774 139586 180774
113845 144632 181129
110774 139774 173970
107402 106135 126623
116006 101774 132774
112590 156434 182079
117546 159774 191774
97044.6 140757 149217
95489.8 149774 150774
169005 185530 156154
163774 185398 166774
113601 79772.6 62331.8
121774 76773.8 67377.8
175212 88277.4 83492.2
174774 82309.8 75773.8
116059 158772 188865
119774 150774 197074
97555 142169 151841
103774 139774 161970
164611 82774.2 89391.4
163774 77773.8 79181.8
113788 148908 182684
119774 138774 190970
109970 100327 119650
118774 94773.8 121954
166086 184657 164317
167214 179774 175774
89304.2 137863 130980
90773.8 145774 139970
174192 82918.2 77297.8
169774 75145.8 71773.8
112175 140074 175888
113106 129774 169774
115140 140786 181282
120774 129774 183114
169847 76912.2 73291.4
161774 72773.8 71961.8
113425 103082 130929
117586 107774 145774
119503 151673 195235
125006 141774 199774
111194 139864 174545
105774 144774 168866
114673 104490 135382
124206 100774 139774
118197 95634.6 121726
126774 91501.8 123774
118601 95032.2 121885
122774 89549.8 115774
106875 144883 169817
103510 150774 165774
115940 107744 142977
113114 115774 151774
117092 107765 144935
126438 104774 149774
124037 101304 139560
131774 99481.8 142774
122519 91346.6 118402
133774 85545.8 115774
98902.2 126787 140357
106290 117774 143774
123184 90059.4 116344
126774 85617.8 108774
124661 106001 149622
131774 107774 158022
90085 167084 141335
92773.8 158774 147970
113093 114866 149679
107518 124774 153774
131295 86554.2 115363
137774 81561.8 107774
133030 85848.2 115651
143774 83773.8 117938
133253 85757.4 115688
138774 88773.8 126026
112715 131670 169549
112774 124774 161982
101475 166099 162915
97589.8 156774 157774
126458 86287.8 109002
130774 81665.8 98773.8
113318 125718 163716
116774 118218 159774
123926 93552.6 124153
132774 93457.8 132774
131571 82581.4 100038
136474 79773.8 92773.8
114355 123468 162533
121774 118774 167274
120611 119341 165809
127774 113774 165958
121425 118944 166835
126774 121462 176774
139259 221398 26315.4
144774 214254 30497.8
142123 217010 29998.2
142774 211998 39773.8
135721 215240 29892.6
125774 209774 32117.8
143125 213046 39165.4
144774 210014 48773.8
126207 209071 39965.4
120774 206774 37593.8
145646 210077 46973.8
149774 206774 53325.8
121605 206119 43430.2
122774 204774 53953.8
134743 208141 54324.6
136774 205386 61773.8
149359 206994 52233.4
154774 201974 57773.8
122423 205177 50796.6
116290 199774 58773.8
137065 205904 60465.4
[...]
CELL_DATA 1581
SCALARS radius float
LOOKUP_TABLE default
100
100
100
100
92.9635
92.9635
89.6332
89.6332
86.4222
86.4222
83.3262
83.3262
77.463
77.463
83.3262
83.3262
80.3411
80.3411
80.3411
80.3411
77.463
77.463
77.463
77.463
72.0123
72.0123
74.6879
74.6879
74.6879
74.6879
74.6879
74.6879
74.6879
74.6879
72.0123
72.0123
69.4326
69.4326
66.9452
66.9452
69.4326
69.4326
72.0123
72.0123
69.4326
69.4326
62.2346
62.2346
69.4326
69.4326
66.9452
66.9452
66.9452
66.9452
64.547
64.547
72.0123
72.0123
60.0051
60.0051
57.8555
57.8555
69.4326
69.4326
62.2346
62.2346
53.7845
53.7845
69.4326
69.4326
64.547
64.547
64.547
64.547
66.9452
66.9452
64.547
64.547
64.547
64.547
69.4326
69.4326
64.547
64.547
60.0051
60.0051
51.8578
51.8578
50
50
66.9452
66.9452
64.547
64.547
57.8555
57.8555
62.2346
62.2346
62.2346
62.2346
62.2346
62.2346
48.2088
48.2088
64.547
64.547
60.0051
60.0051
62.2346
62.2346
62.2346
62.2346
60.0051
60.0051
57.8555
57.8555
60.0051
60.0051
62.2346
62.2346
60.0051
60.0051
60.0051
60.0051
53.7845
53.7845
57.8555
57.8555
57.8555
57.8555
62.2346
62.2346
57.8555
57.8555
66.9452
66.9452
57.8555
57.8555
60.0051
60.0051
51.8578
51.8578
55.7829
55.7829
55.7829
55.7829
57.8555
57.8555
57.8555
57.8555
57.8555
57.8555
57.8555
57.8555
55.7829
55.7829
62.2346
62.2346
51.8578
51.8578
55.7829
55.7829
50
50
55.7829
55.7829
57.8555
57.8555
53.7845
53.7845
53.7845
53.7845
55.7829
55.7829
51.8578
51.8578
62.2346
62.2346
50
50
50
50
55.7829
55.7829
51.8578
51.8578
57.8555
57.8555
51.8578
51.8578
51.8578
51.8578
55.7829
55.7829
53.7845
53.7845
48.2088
48.2088
51.8578
51.8578
51.8578
51.8578
53.7845
53.7845
51.8578
51.8578
50
50
48.2088
48.2088
51.8578
51.8578
46.4818
46.4818
50
50
53.7845
53.7845
51.8578
51.8578
50
50
46.4818
46.4818
51.8578
51.8578
50
50
50
50
51.8578
51.8578
60.0051
60.0051
53.7845
53.7845
50
50
50
50
44.8166
44.8166
44.8166
44.8166
48.2088
48.2088
60.0051
60.0051
44.8166
44.8166
50
50
51.8578
51.8578
48.2088
48.2088
48.2088
48.2088
46.4818
46.4818
51.8578
51.8578
50
50
50
50
44.8166
44.8166
48.2088
48.2088
48.2088
48.2088
46.4818
46.4818
57.8555
57.8555
43.2111
43.2111
46.4818
46.4818
55.7829
55.7829
46.4818
46.4818
50
50
53.7845
53.7845
44.8166
44.8166
46.4818
46.4818
44.8166
44.8166
50
50
46.4818
46.4818
46.4818
46.4818
43.2111
43.2111
53.7845
53.7845
44.8166
44.8166
44.8166
44.8166
44.8166
44.8166
43.2111
43.2111
40.1706
40.1706
43.2111
43.2111
46.4818
46.4818
41.6631
41.6631
51.8578
51.8578
43.2111
43.2111
44.8166
44.8166
43.2111
43.2111
43.2111
43.2111
44.8166
44.8166
40.1706
40.1706
48.2088
48.2088
43.2111
43.2111
44.8166
44.8166
38.7315
38.7315
43.2111
43.2111
41.6631
41.6631
38.7315
38.7315
41.6631
41.6631
43.2111
43.2111
41.6631
41.6631
50
50
43.2111
43.2111
37.344
37.344
41.6631
41.6631
40.1706
40.1706
41.6631
41.6631
40.1706
40.1706
41.6631
41.6631
48.2088
48.2088
48.2088
48.2088
36.0062
36.0062
37.344
37.344
37.344
37.344
34.7163
34.7163
38.7315
38.7315
40.1706
40.1706
36.0062
36.0062
37.344
37.344
40.1706
40.1706
38.7315
38.7315
34.7163
34.7163
36.0062
36.0062
34.7163
34.7163
36.0062
36.0062
37.344
37.344
43.2111
43.2111
36.0062
36.0062
32.2735
32.2735
48.2088
48.2088
34.7163
34.7163
36.0062
36.0062
34.7163
34.7163
33.4726
33.4726
34.7163
34.7163
48.2088
48.2088
34.7163
34.7163
33.4726
33.4726
38.7315
38.7315
33.4726
33.4726
32.2735
32.2735
31.1173
31.1173
30.0026
30.0026
96.4176
96.4176
92.9635
92.9635
89.6332
89.6332
89.6332
89.6332
86.4222
86.4222
83.3262
83.3262
83.3262
83.3262
80.3411
80.3411
80.3411
80.3411
80.3411
80.3411
77.463
77.463
77.463
77.463
80.3411
80.3411
74.6879
74.6879
72.0123
72.0123
74.6879
74.6879
72.0123
72.0123
69.4326
69.4326
77.463
77.463
69.4326
69.4326
64.547
64.547
66.9452
66.9452
62.2346
62.2346
69.4326
69.4326
72.0123
72.0123
72.0123
72.0123
69.4326
69.4326
72.0123
72.0123
66.9452
66.9452
69.4326
69.4326
64.547
64.547
66.9452
66.9452
64.547
64.547
66.9452
66.9452
64.547
64.547
66.9452
66.9452
62.2346
62.2346
64.547
64.547
66.9452
66.9452
64.547
64.547
62.2346
62.2346
69.4326
69.4326
62.2346
62.2346
60.0051
60.0051
66.9452
66.9452
62.2346
62.2346
64.547
64.547
62.2346
62.2346
57.8555
57.8555
74.6879
74.6879
62.2346
62.2346
60.0051
60.0051
62.2346
62.2346
64.547
64.547
72.0123
72.0123
53.7845
53.7845
60.0051
60.0051
55.7829
55.7829
60.0051
60.0051
60.0051
60.0051
66.9452
66.9452
60.0051
60.0051
55.7829
55.7829
60.0051
60.0051
57.8555
57.8555
57.8555
57.8555
57.8555
57.8555
64.547
64.547
62.2346
62.2346
60.0051
60.0051
66.9452
66.9452
60.0051
60.0051
57.8555
57.8555
53.7845
53.7845
62.2346
62.2346
50
50
55.7829
55.7829
60.0051
60.0051
57.8555
57.8555
60.0051
60.0051
62.2346
62.2346
60.0051
60.0051
57.8555
57.8555
62.2346
62.2346
55.7829
55.7829
57.8555
57.8555
60.0051
60.0051
60.0051
60.0051
57.8555
57.8555
55.7829
55.7829
55.7829
55.7829
55.7829
55.7829
50
50
55.7829
55.7829
60.0051
60.0051
55.7829
55.7829
57.8555
57.8555
51.8578
51.8578
53.7845
53.7845
53.7845
53.7845
50
50
50
50
55.7829
55.7829
55.7829
55.7829
53.7845
53.7845
53.7845
53.7845
48.2088
48.2088
53.7845
53.7845
53.7845
53.7845
53.7845
53.7845
51.8578
51.8578
53.7845
53.7845
57.8555
57.8555
50
50
48.2088
48.2088
51.8578
51.8578
50
50
50
50
55.7829
55.7829
53.7845
53.7845
51.8578
51.8578
48.2088
48.2088
50
50
53.7845
53.7845
51.8578
51.8578
53.7845
53.7845
48.2088
48.2088
51.8578
51.8578
55.7829
55.7829
48.2088
48.2088
50
50
48.2088
48.2088
48.2088
48.2088
46.4818
46.4818
48.2088
48.2088
46.4818
46.4818
48.2088
48.2088
55.7829
55.7829
48.2088
48.2088
48.2088
48.2088
48.2088
48.2088
48.2088
48.2088
51.8578
51.8578
46.4818
46.4818
55.7829
55.7829
44.8166
44.8166
50
50
57.8555
57.8555
48.2088
48.2088
55.7829
55.7829
44.8166
44.8166
44.8166
44.8166
46.4818
46.4818
43.2111
43.2111
46.4818
46.4818
46.4818
46.4818
43.2111
43.2111
46.4818
46.4818
51.8578
51.8578
41.6631
41.6631
46.4818
46.4818
48.2088
48.2088
46.4818
46.4818
55.7829
55.7829
44.8166
44.8166
50
50
44.8166
44.8166
46.4818
46.4818
41.6631
41.6631
44.8166
44.8166
48.2088
48.2088
43.2111
43.2111
46.4818
46.4818
48.2088
48.2088
44.8166
44.8166
40.1706
40.1706
43.2111
43.2111
53.7845
53.7845
43.2111
43.2111
50
50
41.6631
41.6631
48.2088
48.2088
44.8166
44.8166
40.1706
40.1706
43.2111
43.2111
41.6631
41.6631
43.2111
43.2111
41.6631
41.6631
46.4818
46.4818
41.6631
41.6631
40.1706
40.1706
41.6631
41.6631
48.2088
48.2088
44.8166
44.8166
38.7315
38.7315
46.4818
46.4818
37.344
37.344
37.344
37.344
44.8166
44.8166
44.8166
44.8166
41.6631
41.6631
44.8166
44.8166
43.2111
43.2111
40.1706
40.1706
44.8166
44.8166
41.6631
41.6631
40.1706
40.1706
38.7315
38.7315
38.7315
38.7315
43.2111
43.2111
44.8166
44.8166
37.344
37.344
38.7315
38.7315
36.0062
36.0062
36.0062
36.0062
34.7163
34.7163
36.0062
36.0062
37.344
37.344
46.4818
46.4818
37.344
37.344
46.4818
46.4818
41.6631
41.6631
41.6631
41.6631
31.1173
31.1173
40.1706
40.1706
30.0026
30.0026
33.4726
33.4726
34.7163
34.7163
40.1706
40.1706
33.4726
33.4726
32.2735
32.2735
37.344
37.344
32.2735
32.2735
31.1173
31.1173
28.9278
28.9278
30.0026
30.0026
86.4222
86.4222
86.4222
86.4222
83.3262
83.3262
80.3411
80.3411
77.463
77.463
80.3411
80.3411
74.6879
74.6879
74.6879
74.6879
74.6879
74.6879
72.0123
72.0123
72.0123
72.0123
66.9452
66.9452
77.463
77.463
69.4326
69.4326
74.6879
74.6879
66.9452
66.9452
72.0123
72.0123
66.9452
66.9452
69.4326
69.4326
60.0051
60.0051
66.9452
66.9452
69.4326
69.4326
72.0123
72.0123
69.4326
69.4326
66.9452
66.9452
66.9452
66.9452
64.547
64.547
64.547
64.547
64.547
64.547
64.547
64.547
62.2346
62.2346
64.547
64.547
66.9452
66.9452
62.2346
62.2346
62.2346
62.2346
62.2346
62.2346
62.2346
62.2346
60.0051
60.0051
64.547
64.547
62.2346
62.2346
57.8555
57.8555
64.547
64.547
69.4326
69.4326
69.4326
69.4326
64.547
64.547
57.8555
57.8555
55.7829
55.7829
55.7829
55.7829
57.8555
57.8555
53.7845
53.7845
51.8578
51.8578
51.8578
51.8578
62.2346
62.2346
64.547
64.547
55.7829
55.7829
62.2346
62.2346
66.9452
66.9452
50
50
53.7845
53.7845
57.8555
57.8555
55.7829
55.7829
55.7829
55.7829
53.7845
53.7845
57.8555
57.8555
62.2346
62.2346
60.0051
60.0051
55.7829
55.7829
51.8578
51.8578
55.7829
55.7829
48.2088
48.2088
55.7829
55.7829
55.7829
55.7829
57.8555
57.8555
57.8555
57.8555
60.0051
60.0051
57.8555
57.8555
55.7829
55.7829
55.7829
55.7829
46.4818
46.4818
51.8578
51.8578
55.7829
55.7829
53.7845
53.7845
53.7845
53.7845
48.2088
48.2088
57.8555
57.8555
60.0051
60.0051
55.7829
55.7829
53.7845
53.7845
53.7845
53.7845
48.2088
48.2088
55.7829
55.7829
51.8578
51.8578
51.8578
51.8578
53.7845
53.7845
51.8578
51.8578
53.7845
53.7845
48.2088
48.2088
50
50
48.2088
48.2088
60.0051
60.0051
53.7845
53.7845
55.7829
55.7829
50
50
53.7845
53.7845
55.7829
55.7829
51.8578
51.8578
53.7845
53.7845
48.2088
48.2088
53.7845
53.7845
50
50
51.8578
51.8578
46.4818
46.4818
53.7845
53.7845
51.8578
51.8578
51.8578
51.8578
46.4818
46.4818
51.8578
51.8578
46.4818
46.4818
50
50
57.8555
57.8555
51.8578
51.8578
50
50
50
50
48.2088
48.2088
51.8578
51.8578
50
50
50
50
48.2088
48.2088
44.8166
44.8166
46.4818
46.4818
53.7845
53.7845
50
50
46.4818
46.4818
51.8578
51.8578
44.8166
44.8166
41.6631
41.6631
46.4818
46.4818
46.4818
46.4818
50
50
46.4818
46.4818
46.4818
46.4818
50
50
43.2111
43.2111
43.2111
43.2111
44.8166
44.8166
43.2111
43.2111
43.2111
43.2111
40.1706
40.1706
48.2088
48.2088
40.1706
40.1706
41.6631
41.6631
44.8166
44.8166
55.7829
55.7829
44.8166
44.8166
44.8166
44.8166
43.2111
43.2111
48.2088
48.2088
43.2111
43.2111
50
50
41.6631
41.6631
48.2088
48.2088
41.6631
41.6631
48.2088
48.2088
46.4818
46.4818
43.2111
43.2111
48.2088
48.2088
43.2111
43.2111
46.4818
46.4818
44.8166
44.8166
41.6631
41.6631
38.7315
38.7315
38.7315
38.7315
51.8578
51.8578
40.1706
40.1706
46.4818
46.4818
43.2111
43.2111
41.6631
41.6631
41.6631
41.6631
43.2111
43.2111
44.8166
44.8166
41.6631
41.6631
50
50
37.344
37.344
40.1706
40.1706
36.0062
36.0062
43.2111
43.2111
43.2111
43.2111
40.1706
40.1706
38.7315
38.7315
40.1706
40.1706
43.2111
43.2111
44.8166
44.8166
40.1706
40.1706
38.7315
38.7315
41.6631
41.6631
37.344
37.344
100
96.4176
96.4176
92.9635
92.9635
86.4222
86.4222
83.3262
83.3262
89.6332
89.6332
80.3411
80.3411
89.6332
89.6332
77.463
77.463
86.4222
86.4222
74.6879
74.6879
83.3262
83.3262
80.3411
80.3411
80.3411
80.3411
72.0123
72.0123
77.463
77.463
77.463
77.463
69.4326
69.4326
74.6879
74.6879
74.6879
74.6879
66.9452
66.9452
72.0123
72.0123
72.0123
72.0123
64.547
64.547
72.0123
72.0123
69.4326
69.4326
66.9452
66.9452
69.4326
69.4326
66.9452
66.9452
64.547
64.547
64.547
64.547
66.9452
66.9452
77.463
77.463
64.547
64.547
62.2346
62.2346
62.2346
62.2346
66.9452
66.9452
62.2346
62.2346
62.2346
62.2346
60.0051
60.0051
57.8555
57.8555
62.2346
62.2346
60.0051
60.0051
55.7829
55.7829
60.0051
60.0051
55.7829
55.7829
53.7845
53.7845
57.8555
57.8555
60.0051
60.0051
60.0051
60.0051
57.8555
57.8555
51.8578
51.8578
53.7845
53.7845
57.8555
57.8555
55.7829
55.7829
51.8578
51.8578
55.7829
55.7829
53.7845
53.7845
51.8578
51.8578
57.8555
57.8555
53.7845
53.7845
51.8578
51.8578
51.8578
51.8578
50
50
50
50
50
50
51.8578
51.8578
50
50
50
50
48.2088
48.2088
48.2088
48.2088
48.2088
48.2088
46.4818
46.4818
46.4818
46.4818
44.8166
44.8166
46.4818
46.4818
50
50
48.2088
48.2088
48.2088
48.2088
46.4818
46.4818
43.2111
43.2111
44.8166
44.8166
46.4818
46.4818
41.6631
41.6631
44.8166
44.8166
43.2111
43.2111
41.6631
41.6631
41.6631
41.6631
40.1706
40.1706
43.2111
43.2111
40.1706
40.1706
44.8166
44.8166
44.8166
44.8166
38.7315
38.7315
48.2088
48.2088
38.7315
38.7315
37.344
37.344
46.4818
46.4818
43.2111
43.2111
37.344
37.344
41.6631
41.6631
36.0062
36.0062
34.7163
34.7163
43.2111
43.2111
36.0062
36.0062
34.7163
34.7163
34.7163
34.7163
44.8166
44.8166
33.4726
33.4726
33.4726
33.4726
41.6631
41.6631
33.4726
33.4726
32.2735
32.2735
32.2735
32.2735
40.1706
40.1706
31.1173
31.1173
32.2735
32.2735
38.7315
38.7315
31.1173
31.1173
30.0026
30.0026
31.1173
31.1173
30.0026
30.0026
28.9278
28.9278
37.344
37.344
28.9278
28.9278
30.0026
30.0026
27.8914
27.8914
36.0062
36.0062
28.9278
28.9278
26.8923
26.8923
34.7163
34.7163
92.9635
92.9635
89.6332
89.6332
86.4222
86.4222
83.3262
83.3262
80.3411
80.3411
77.463
77.463
74.6879
74.6879
72.0123
72.0123
83.3262
83.3262
