# vtk DataFile Version 3.0
Tree
ASCII
DATASET POLYDATA
POINTS 1582 float
162774 225274 273.8
162774 225274 10273.8
141774 225774 23773.8
135774 212774 31961.8
137574 216674 29505.4
143774 209774 53017.8
136314 213944 31225
120774 205774 48965.8
140420 210517 48635.8
131774 201774 67061.8
142767 209997 51703
153774 197774 71965.8
122107 205438 45755
107774 195238 57773.8
132008 203021 63166.6
116774 193818 74773.8
131844 202148 65893
133774 195814 85773.8
152207 199672 64987
170098 180774 72773.8
163299 187955 69815
168026 185774 91773.8
108720 194788 56167.8
94773.8 181974 65773.8
116790 193836 74508.2
103774 185994 83773.8
131573 197134 81666.2
121774 193026 94773.8
167285 182196 70548.6
174774 164774 67657.8
133113 196210 84541.4
139774 195998 102774
172527 170001 68525
171910 158774 53773.8
169254 181201 72106.2
179834 169774 87773.8
176970 173279 85923.4
179782 172774 104774
96859.4 183194 63740.2
82773.8 165974 69773.8
174087 165199 68396.2
178050 148774 69773.8
88126.2 172517 67481
82773.8 169958 85773.8
123859 194380 93677.4
117774 194774 112222
172199 158308 55451.8
172054 147774 44773.8
119964 194145 100238
107774 191946 104774
139333 195777 95073.8
157078 193774 103774
178975 170825 87218.6
182002 154774 84773.8
177235 151109 68701.8
179874 133774 64773.8
179163 170751 97508.2
183998 156774 110774
85067 172157 81331.4
85773.8 179270 99773.8
117385 194776 110463
110774 196002 122774
117657 194775 111694
130774 196002 122774
148915 194695 99771.8
149774 195998 118774
162887 188562 80673.4
157774 191994 89773.8
178449 143135 66895
183998 132774 79773.8
179115 135650 64256.2
178018 123774 55773.8
182306 162086 108511
183998 159774 127774
83947 166136 69630.6
77773.8 150774 74481.8
148842 195646 116163
144774 195998 136774
81601.4 160298 71473.8
82773.8 145774 60257.8
183135 157663 110740
183998 143774 118774
155373 193190 103593
169974 186774 114774
83461.8 170618 84441
75773.8 156774 101066
80057.4 165374 93666.2
78365.8 167774 108774
78772.6 162794 95886.2
76773.8 147590 89773.8
181222 158852 87169.4
183998 143774 95773.8
178347 127337 58318.6
177774 128774 43253.8
114317 196034 120000
115774 199998 140774
84621.8 177270 98830.2
83653.8 180774 113774
149494 195892 117991
157774 193978 127774
116687 198016 131561
126774 198018 138774
146443 195802 135417
145938 195774 147774
167206 186363 111756
176774 177974 116774
183412 147235 118622
181974 133774 137774
183822 144812 118728
183774 130446 119774
116048 199403 138010
105774 194774 147134
82395.8 149919 66133
83673.8 130774 67773.8
183456 159394 126090
183998 155774 143774
183765 155930 135750
183998 145774 140774
182213 137198 127923
180774 126774 129954
144691 196095 144429
135774 198002 154774
85129.4 180735 109943
91773.8 189254 123774
77809.4 149761 90584.2
80317.8 133774 83773.8
181591 134839 136820
178774 134774 149958
78003 158304 100230
80773.8 145774 113966
83879 134963 66070.6
87605.8 123774 58773.8
183637 154989 142085
182002 149774 151774
156142 193962 127781
163774 191186 141774
79499.4 151538 107647
80773.8 136258 103774
181859 134093 137488
176022 122774 141774
87122.6 183290 114093
87505.8 173774 132774
178275 133619 148222
173774 130578 158774
109230 195134 145639
104774 185774 159266
86207.4 176102 121847
83525.8 165774 125774
80450.2 136370 87353
83657.8 124774 88773.8
107537 191577 150817
114774 193774 163322
85295.4 130711 63297.8
88773.8 117522 70773.8
139175 197227 152973
137774 197230 167774
90798.2 187325 122700
93773.8 186974 134774
180997 129436 128075
177950 113774 122774
105100 186270 157056
101774 178126 159774
177782 125475 139294
174002 113774 134774
172373 181833 114465
175258 181774 128774
87551.4 124387 59015.4
91673.8 114774 51773.8
178888 117723 123141
178774 111774 115170
80817 146572 111502
84997.8 133774 115774
176205 132220 153076
168774 120774 153986
88181.4 174425 131772
91773.8 172774 144806
173590 130629 158308
167774 127774 166434
83302.2 146245 60846.2
87493.8 138774 49773.8
176044 122931 141127
170774 115598 144774
182492 151338 148867
179222 156774 165774
85019.8 168129 125939
87493.8 156774 136774
176826 132640 151620
177774 140774 160898
92195 172890 144189
96357.8 171774 153774
83788.2 126335 88110.2
90773.8 113566 86773.8
111662 191429 159614
114774 183774 175242
173748 114998 135436
168774 104774 131974
83697 125242 88574.6
86357.8 122774 103774
145564 195870 146770
153774 192022 153774
85559.4 123514 99214.2
90265.8 115774 101774
90107.4 118427 54525.4
95657.8 102774 62773.8
102641 178735 159600
101554 166774 163774
178123 112617 118122
173774 99525.8 111774
89384.2 115923 85874.6
94321.8 105774 77773.8
115856 199819 139945
119774 199998 153774
168249 127845 164847
159950 122774 170774
84677.8 136364 115881
90773.8 127590 124774
138852 196759 165738
142774 193874 181774
176526 136856 158178
171774 137774 169970
106811 194882 146685
98773.8 183774 149326
169660 123399 154691
160774 117454 160774
83519.4 139426 114567
87501.8 137774 126774
174875 180953 127835
177190 178774 141774
170623 107652 131898
169546 99773.8 122774
178823 156995 163444
174062 163774 176774
113840 186071 170553
109542 172774 173774
183889 155538 143267
181998 166774 146774
171937 136826 168034
163774 132774 178886
90357 114273 86504.2
95773.8 106306 94773.8
136249 197887 154835
126774 200002 161774
170965 116902 144629
161974 110774 150774
177014 159571 168509
172038 150774 179774
176310 179602 136477
171258 185774 143774
171823 137489 169389
172774 144774 173958
102443 167801 163278
103486 156774 166774
173349 101265 113805
167286 90773.8 111774
93282.2 109971 90969.8
99773.8 100774 86861.8
151311 193176 151673
149974 191774 165774
89324.6 118262 102213
97997.8 109774 112774
173646 100047 112383
173774 94773.8 102890
87969.4 131626 120683
91773.8 119774 116126
177004 178503 141180
178062 174774 150774
174042 163213 176581
169774 167774 187890
96205 103731 61634.2
102370 92773.8 65773.8
170511 97243.4 114116
164774 92773.8 119946
99142.2 98221.8 62587.4
101774 91773.8 58093.8
168321 92825.8 111521
164774 85561.8 102774
90239.4 129717 124397
98773.8 125774 139326
112123 177231 174095
114774 163774 185958
164053 133594 178490
157774 132230 186774
112470 171294 177673
109494 160774 176774
171876 151349 178184
165774 142774 186970
172414 184059 143064
169774 185430 152774
169069 147404 182225
165774 151774 195062
96817 110666 109643
106290 99773.8 110774
168737 105122 131836
161774 96773.8 131266
99393.4 102137 88378.6
109578 92773.8 89773.8
110176 161340 176781
108530 150774 175774
173163 95095.8 104135
171774 88389.8 93773.8
98081.8 110160 112466
103574 108774 123774
150741 191103 164061
151186 187774 175774
90613.4 128228 124661
95773.8 119774 126130
169835 167522 185520
161982 174774 192774
102277 93560.6 64846.2
109774 84773.8 67113.8
105708 96331.8 89243.8
109578 90773.8 79773.8
96609.4 127819 136645
99773.8 132774 148970
164487 86713 104715
155886 79773.8 99773.8
113981 164544 183695
113554 154774 185774
109024 153944 176076
112774 146774 181890
171469 183909 150293
173774 178774 164882
101926 109190 120381
110774 101506 122774
172413 91474.6 98539.8
176774 95521.8 88773.8
93771.8 109496 57197
97553.8 99773.8 51773.8
172137 89345.8 94181.8
172774 87505.8 84773.8
164338 172598 190598
156774 181194 185774
161219 84075.8 102838
161774 81553.8 92773.8
108589 86026.2 65664.2
115774 76773.8 61133.8
162184 82233 94371
165774 81541.8 84773.8
98281.4 132579 145049
97025.8 143774 151774
108119 103811 122056
112774 103774 132890
111049 150072 179215
111610 137774 174774
98124.6 126387 138522
102326 117774 136774
114328 158555 185921
117774 151774 193206
98571.4 136469 148682
102774 138774 158030
172345 181957 155837
163774 185774 166094
110400 102159 123138
117774 97773.8 127990
112811 147072 181564
118342 138774 187774
113619 79549.4 62493
122774 76773.8 67981.8
172487 87060.2 86193.8
171950 80773.8 76773.8
167054 183878 163606
165774 181774 173966
172111 82659.8 79599.8
177334 83773.8 72773.8
87826.6 157607 134707
91509.8 146774 141774
113202 100493 124982
118774 93597.8 119774
171998 81339.4 77621.8
163774 74773.8 73969.8
111640 139469 174515
112358 129774 168774
112592 104349 131477
118774 105774 143322
117543 152345 191893
122774 142774 197882
102433 138316 157487
106358 139774 166774
116683 141263 185911
121702 127774 181774
118413 132765 180785
118294 127774 175774
165827 181292 173484
164774 178774 181946
116094 106115 139799
115086 111774 147774
113643 104879 133974
124774 98773.8 137882
118450 105528 141869
126222 102774 145774
117982 95887.4 122293
130230 88773.8 121774
123782 100239 138067
130774 98773.8 141894
126159 90805 120695
131774 85497.8 112774
114495 110365 144345
107774 119090 147774
123890 103600 144602
129774 106774 155290
88931.4 154357 136827
91773.8 155774 147026
130001 89204.6 121432
138774 86773.8 122026
136142 87503 121847
140774 83493.8 113774
111942 131627 169064
110774 124310 159774
99326.2 132715 147793
105462 128774 154774
130398 86549.4 113679
132774 82773.8 103958
139852 84015 114150
142774 80773.8 105890
131843 88694.2 121557
136774 90773.8 129970
102923 162729 164886
98773.8 153774 157986
124476 99213.4 137937
127774 93549.8 130774
133133 83111.8 104497
136774 79665.8 94773.8
115208 111588 147606
117774 114774 157110
117793 114874 156544
120774 118774 165950
119164 116668 160871
127774 113538 164774
120875 129190 180429
127774 119706 175774
138834 219404 27785.8
143774 212774 31977.8
135936 213125 31740.6
125774 209774 32117.8
135822 212879 31895.4
130774 209774 48893.8
131414 209337 47793.8
129774 207182 54773.8
143472 209841 52623.4
150774 206090 52773.8
129482 207319 52890.6
123590 202774 58773.8
143683 209794 52899.4
140774 205774 62789.8
123567 203221 57731.4
116774 199178 61773.8
140357 205680 61813.4
137774 202774 67293.8
140649 205745 62497
144774 202038 67773.8
128256 210095 33587.4
112294 201774 43773.8
153974 197878 69916.2
159122 193774 74773.8
153834 197805 71351
145954 198774 74773.8
119517 196541 68810.6
112774 193934 68773.8
157166 195333 72927.8
154774 194042 81773.8
[...]
CELL_DATA 1581
SCALARS radius float
LOOKUP_TABLE default
100
100
100
100
92.9635
92.9635
89.6332
89.6332
89.6332
89.6332
86.4222
86.4222
86.4222
86.4222
86.4222
86.4222
83.3262
83.3262
83.3262
83.3262
80.3411
80.3411
83.3262
83.3262
77.463
77.463
80.3411
80.3411
77.463
77.463
77.463
77.463
69.4326
69.4326
74.6879
74.6879
72.0123
72.0123
80.3411
80.3411
66.9452
66.9452
77.463
77.463
77.463
77.463
64.547
64.547
74.6879
74.6879
74.6879
74.6879
69.4326
69.4326
62.2346
62.2346
69.4326
69.4326
74.6879
74.6879
72.0123
72.0123
69.4326
69.4326
72.0123
72.0123
74.6879
74.6879
60.0051
60.0051
55.7829
55.7829
66.9452
66.9452
74.6879
74.6879
66.9452
66.9452
69.4326
69.4326
64.547
64.547
69.4326
69.4326
72.0123
72.0123
69.4326
69.4326
66.9452
66.9452
66.9452
66.9452
51.8578
51.8578
69.4326
69.4326
69.4326
69.4326
64.547
64.547
66.9452
66.9452
62.2346
62.2346
64.547
64.547
62.2346
62.2346
60.0051
60.0051
64.547
64.547
66.9452
66.9452
64.547
64.547
60.0051
60.0051
60.0051
60.0051
60.0051
60.0051
66.9452
66.9452
64.547
64.547
57.8555
57.8555
64.547
64.547
64.547
64.547
57.8555
57.8555
60.0051
60.0051
62.2346
62.2346
55.7829
55.7829
64.547
64.547
55.7829
55.7829
62.2346
62.2346
57.8555
57.8555
62.2346
62.2346
60.0051
60.0051
62.2346
62.2346
53.7845
53.7845
57.8555
57.8555
57.8555
57.8555
57.8555
57.8555
53.7845
53.7845
62.2346
62.2346
60.0051
60.0051
55.7829
55.7829
60.0051
60.0051
51.8578
51.8578
53.7845
53.7845
50
50
64.547
64.547
51.8578
51.8578
55.7829
55.7829
55.7829
55.7829
53.7845
53.7845
50
50
60.0051
60.0051
57.8555
57.8555
50
50
57.8555
57.8555
57.8555
57.8555
55.7829
55.7829
57.8555
57.8555
55.7829
55.7829
53.7845
53.7845
57.8555
57.8555
62.2346
62.2346
46.4818
46.4818
55.7829
55.7829
50
50
50
50
60.0051
60.0051
48.2088
48.2088
57.8555
57.8555
60.0051
60.0051
48.2088
48.2088
53.7845
53.7845
55.7829
55.7829
55.7829
55.7829
48.2088
48.2088
55.7829
55.7829
51.8578
51.8578
50
50
50
50
57.8555
57.8555
46.4818
46.4818
53.7845
53.7845
50
50
53.7845
53.7845
55.7829
55.7829
53.7845
53.7845
48.2088
48.2088
53.7845
53.7845
55.7829
55.7829
48.2088
48.2088
53.7845
53.7845
48.2088
48.2088
51.8578
51.8578
46.4818
46.4818
51.8578
51.8578
53.7845
53.7845
44.8166
44.8166
51.8578
51.8578
48.2088
48.2088
55.7829
55.7829
46.4818
46.4818
51.8578
51.8578
46.4818
46.4818
51.8578
51.8578
50
50
46.4818
46.4818
50
50
53.7845
53.7845
50
50
44.8166
44.8166
48.2088
48.2088
48.2088
48.2088
48.2088
48.2088
44.8166
44.8166
50
50
46.4818
46.4818
53.7845
53.7845
48.2088
48.2088
44.8166
44.8166
55.7829
55.7829
43.2111
43.2111
43.2111
43.2111
41.6631
41.6631
44.8166
44.8166
38.7315
38.7315
46.4818
46.4818
46.4818
46.4818
44.8166
44.8166
46.4818
46.4818
48.2088
48.2088
44.8166
44.8166
51.8578
51.8578
44.8166
44.8166
43.2111
43.2111
43.2111
43.2111
41.6631
41.6631
50
50
40.1706
40.1706
53.7845
53.7845
43.2111
43.2111
38.7315
38.7315
43.2111
43.2111
44.8166
44.8166
46.4818
46.4818
43.2111
43.2111
40.1706
40.1706
37.344
37.344
48.2088
48.2088
41.6631
41.6631
43.2111
43.2111
40.1706
40.1706
41.6631
41.6631
41.6631
41.6631
40.1706
40.1706
40.1706
40.1706
38.7315
38.7315
51.8578
51.8578
38.7315
38.7315
36.0062
36.0062
41.6631
41.6631
44.8166
44.8166
38.7315
38.7315
34.7163
34.7163
37.344
37.344
51.8578
51.8578
40.1706
40.1706
37.344
37.344
38.7315
38.7315
37.344
37.344
36.0062
36.0062
36.0062
36.0062
96.4176
96.4176
86.4222
86.4222
83.3262
83.3262
77.463
77.463
83.3262
83.3262
74.6879
74.6879
80.3411
80.3411
69.4326
69.4326
77.463
77.463
74.6879
74.6879
83.3262
83.3262
80.3411
80.3411
77.463
77.463
80.3411
80.3411
77.463
77.463
77.463
77.463
83.3262
83.3262
74.6879
74.6879
74.6879
74.6879
72.0123
72.0123
80.3411
80.3411
69.4326
69.4326
72.0123
72.0123
74.6879
74.6879
74.6879
74.6879
69.4326
69.4326
72.0123
72.0123
66.9452
66.9452
66.9452
66.9452
74.6879
74.6879
74.6879
74.6879
66.9452
66.9452
64.547
64.547
72.0123
72.0123
72.0123
72.0123
69.4326
69.4326
62.2346
62.2346
69.4326
69.4326
69.4326
69.4326
66.9452
66.9452
60.0051
60.0051
64.547
64.547
60.0051
60.0051
66.9452
66.9452
60.0051
60.0051
72.0123
72.0123
72.0123
72.0123
64.547
64.547
66.9452
66.9452
66.9452
66.9452
72.0123
72.0123
69.4326
69.4326
66.9452
66.9452
64.547
64.547
66.9452
66.9452
62.2346
62.2346
66.9452
66.9452
69.4326
69.4326
64.547
64.547
72.0123
72.0123
62.2346
62.2346
66.9452
66.9452
66.9452
66.9452
64.547
64.547
55.7829
55.7829
66.9452
66.9452
64.547
64.547
62.2346
62.2346
69.4326
69.4326
50
50
60.0051
60.0051
62.2346
62.2346
66.9452
66.9452
57.8555
57.8555
66.9452
66.9452
62.2346
62.2346
48.2088
48.2088
57.8555
57.8555
64.547
64.547
48.2088
48.2088
62.2346
62.2346
62.2346
62.2346
66.9452
66.9452
64.547
64.547
46.4818
46.4818
55.7829
55.7829
60.0051
60.0051
57.8555
57.8555
57.8555
57.8555
57.8555
57.8555
62.2346
62.2346
60.0051
60.0051
55.7829
55.7829
55.7829
55.7829
55.7829
55.7829
62.2346
62.2346
55.7829
55.7829
60.0051
60.0051
57.8555
57.8555
62.2346
62.2346
51.8578
51.8578
62.2346
62.2346
53.7845
53.7845
55.7829
55.7829
60.0051
60.0051
55.7829
55.7829
55.7829
55.7829
57.8555
57.8555
50
50
57.8555
57.8555
57.8555
57.8555
53.7845
53.7845
55.7829
55.7829
62.2346
62.2346
57.8555
57.8555
53.7845
53.7845
57.8555
57.8555
55.7829
55.7829
48.2088
48.2088
53.7845
53.7845
53.7845
53.7845
55.7829
55.7829
48.2088
48.2088
55.7829
55.7829
53.7845
53.7845
48.2088
48.2088
55.7829
55.7829
55.7829
55.7829
60.0051
60.0051
51.8578
51.8578
51.8578
51.8578
44.8166
44.8166
55.7829
55.7829
57.8555
57.8555
51.8578
51.8578
46.4818
46.4818
51.8578
51.8578
55.7829
55.7829
46.4818
46.4818
53.7845
53.7845
53.7845
53.7845
51.8578
51.8578
46.4818
46.4818
46.4818
46.4818
48.2088
48.2088
46.4818
46.4818
51.8578
51.8578
53.7845
53.7845
44.8166
44.8166
51.8578
51.8578
51.8578
51.8578
53.7845
53.7845
43.2111
43.2111
51.8578
51.8578
46.4818
46.4818
53.7845
53.7845
44.8166
44.8166
44.8166
44.8166
53.7845
53.7845
51.8578
51.8578
50
50
53.7845
53.7845
46.4818
46.4818
51.8578
51.8578
46.4818
46.4818
48.2088
48.2088
44.8166
44.8166
55.7829
55.7829
46.4818
46.4818
48.2088
48.2088
50
50
50
50
48.2088
48.2088
48.2088
48.2088
44.8166
44.8166
53.7845
53.7845
50
50
51.8578
51.8578
48.2088
48.2088
43.2111
43.2111
46.4818
46.4818
41.6631
41.6631
50
50
43.2111
43.2111
46.4818
46.4818
46.4818
46.4818
51.8578
51.8578
46.4818
46.4818
43.2111
43.2111
50
50
44.8166
44.8166
41.6631
41.6631
51.8578
51.8578
40.1706
40.1706
48.2088
48.2088
44.8166
44.8166
50
50
41.6631
41.6631
41.6631
41.6631
38.7315
38.7315
43.2111
43.2111
48.2088
48.2088
41.6631
41.6631
40.1706
40.1706
44.8166
44.8166
37.344
37.344
48.2088
48.2088
37.344
37.344
37.344
37.344
43.2111
43.2111
38.7315
38.7315
40.1706
40.1706
41.6631
41.6631
36.0062
36.0062
37.344
37.344
46.4818
46.4818
46.4818
46.4818
50
50
46.4818
46.4818
40.1706
40.1706
44.8166
44.8166
50
50
38.7315
38.7315
37.344
37.344
37.344
37.344
36.0062
36.0062
37.344
37.344
44.8166
44.8166
48.2088
48.2088
36.0062
36.0062
38.7315
38.7315
46.4818
46.4818
36.0062
36.0062
34.7163
34.7163
36.0062
36.0062
34.7163
34.7163
34.7163
34.7163
33.4726
33.4726
92.9635
92.9635
89.6332
89.6332
86.4222
86.4222
80.3411
80.3411
80.3411
80.3411
72.0123
72.0123
77.463
77.463
74.6879
74.6879
80.3411
80.3411
74.6879
74.6879
74.6879
74.6879
77.463
77.463
72.0123
72.0123
72.0123
72.0123
72.0123
72.0123
69.4326
69.4326
77.463
77.463
69.4326
69.4326
66.9452
66.9452
72.0123
72.0123
69.4326
69.4326
69.4326
69.4326
69.4326
69.4326
74.6879
74.6879
77.463
77.463
72.0123
72.0123
77.463
77.463
66.9452
66.9452
69.4326
69.4326
72.0123
72.0123
64.547
64.547
64.547
64.547
69.4326
69.4326
64.547
64.547
62.2346
62.2346
66.9452
66.9452
72.0123
72.0123
62.2346
62.2346
64.547
64.547
64.547
64.547
69.4326
69.4326
60.0051
60.0051
62.2346
62.2346
64.547
64.547
62.2346
62.2346
62.2346
62.2346
62.2346
62.2346
66.9452
66.9452
64.547
64.547
62.2346
62.2346
60.0051
60.0051
64.547
64.547
69.4326
69.4326
66.9452
66.9452
64.547
64.547
64.547
64.547
57.8555
57.8555
53.7845
53.7845
64.547
64.547
62.2346
62.2346
60.0051
60.0051
57.8555
57.8555
66.9452
66.9452
62.2346
62.2346
64.547
64.547
64.547
64.547
60.0051
60.0051
50
50
64.547
64.547
60.0051
60.0051
60.0051
60.0051
62.2346
62.2346
48.2088
48.2088
62.2346
62.2346
57.8555
57.8555
64.547
64.547
60.0051
60.0051
64.547
64.547
44.8166
44.8166
57.8555
57.8555
62.2346
62.2346
60.0051
60.0051
44.8166
44.8166
64.547
64.547
55.7829
55.7829
60.0051
60.0051
60.0051
60.0051
62.2346
62.2346
60.0051
60.0051
55.7829
55.7829
53.7845
53.7845
60.0051
60.0051
62.2346
62.2346
60.0051
60.0051
57.8555
57.8555
53.7845
53.7845
57.8555
57.8555
50
50
60.0051
60.0051
51.8578
51.8578
57.8555
57.8555
55.7829
55.7829
62.2346
62.2346
55.7829
55.7829
53.7845
53.7845
55.7829
55.7829
53.7845
53.7845
51.8578
51.8578
50
50
57.8555
57.8555
48.2088
48.2088
53.7845
53.7845
48.2088
48.2088
53.7845
53.7845
53.7845
53.7845
55.7829
55.7829
51.8578
51.8578
50
50
46.4818
46.4818
53.7845
53.7845
48.2088
48.2088
46.4818
46.4818
51.8578
51.8578
51.8578
51.8578
46.4818
46.4818
55.7829
55.7829
48.2088
48.2088
62.2346
62.2346
53.7845
53.7845
53.7845
53.7845
44.8166
44.8166
48.2088
48.2088
51.8578
51.8578
46.4818
46.4818
48.2088
48.2088
62.2346
62.2346
44.8166
44.8166
53.7845
53.7845
48.2088
48.2088
55.7829
55.7829
53.7845
53.7845
41.6631
41.6631
50
50
43.2111
43.2111
51.8578
51.8578
44.8166
44.8166
43.2111
43.2111
50
50
44.8166
44.8166
46.4818
46.4818
53.7845
53.7845
44.8166
44.8166
51.8578
51.8578
43.2111
43.2111
48.2088
48.2088
51.8578
51.8578
44.8166
44.8166
43.2111
43.2111
50
50
57.8555
57.8555
48.2088
48.2088
50
50
50
50
41.6631
41.6631
50
50
43.2111
43.2111
44.8166
44.8166
46.4818
46.4818
48.2088
48.2088
44.8166
44.8166
48.2088
48.2088
43.2111
43.2111
48.2088
48.2088
43.2111
43.2111
50
50
41.6631
41.6631
46.4818
46.4818
44.8166
44.8166
44.8166
44.8166
44.8166
44.8166
48.2088
48.2088
40.1706
40.1706
41.6631
41.6631
43.2111
43.2111
40.1706
40.1706
44.8166
44.8166
41.6631
41.6631
50
50
46.4818
46.4818
48.2088
48.2088
51.8578
51.8578
40.1706
40.1706
41.6631
41.6631
43.2111
43.2111
48.2088
48.2088
41.6631
41.6631
36.0062
36.0062
40.1706
40.1706
100
96.4176
96.4176
89.6332
89.6332
86.4222
86.4222
80.3411
80.3411
92.9635
92.9635
83.3262
83.3262
83.3262
83.3262
80.3411
80.3411
77.463
77.463
80.3411
80.3411
77.463
77.463
77.463
77.463
74.6879
74.6879
74.6879
74.6879
74.6879
74.6879
72.0123
72.0123
69.4326
69.4326
72.0123
72.0123
72.0123
72.0123
66.9452
66.9452
69.4326
69.4326
64.547
64.547
66.9452
66.9452
69.4326
69.4326
66.9452
66.9452
64.547
64.547
66.9452
66.9452
62.2346
62.2346
64.547
64.547
64.547
64.547
64.547
64.547
62.2346
62.2346
62.2346
62.2346
62.2346
62.2346
62.2346
62.2346
60.0051
60.0051
60.0051
60.0051
60.0051
60.0051
55.7829
55.7829
57.8555
57.8555
57.8555
57.8555
53.7845
53.7845
57.8555
57.8555
86.4222
86.4222
53.7845
53.7845
55.7829
55.7829
62.2346
62.2346
60.0051
60.0051
60.0051
60.0051
60.0051
60.0051
51.8578
51.8578
55.7829
55.7829
51.8578
51.8578
53.7845
53.7845
51.8578
51.8578
51.8578
51.8578
57.8555
57.8555
51.8578
51.8578
53.7845
53.7845
50
50
50
50
48.2088
48.2088
50
50
48.2088
48.2088
48.2088
48.2088
50
50
46.4818
46.4818
46.4818
46.4818
44.8166
44.8166
50
50
48.2088
48.2088
46.4818
46.4818
46.4818
46.4818
44.8166
44.8166
43.2111
43.2111
41.6631
41.6631
44.8166
44.8166
43.2111
43.2111
43.2111
43.2111
43.2111
43.2111
41.6631
41.6631
48.2088
48.2088
40.1706
40.1706
51.8578
51.8578
38.7315
38.7315
41.6631
41.6631
40.1706
40.1706
41.6631
41.6631
40.1706
40.1706
41.6631
41.6631
41.6631
41.6631
38.7315
38.7315
37.344
37.344
36.0062
36.0062
40.1706
40.1706
40.1706
40.1706
38.7315
38.7315
38.7315
38.7315
37.344
37.344
40.1706
40.1706
34.7163
34.7163
33.4726
33.4726
33.4726
33.4726
31.1173
31.1173
37.344
37.344
32.2735
32.2735
31.1173
31.1173
30.0026
30.0026
36.0062
36.0062
28.9278
28.9278
30.0026
30.0026
30.0026
30.0026
28.9278
28.9278
34.7163
34.7163
28.9278
28.9278
27.8914
27.8914
27.8914
27.8914
27.8914
27.8914
26.8923
26.8923
33.4726
33.4726
25.9289
25.9289
26.8923
26.8923
26.8923
26.8923
25.9289
25.9289
32.2735
32.2735
25
25
62.2346
62.2346
60.0051
60.0051
89.6332
89.6332
86.4222
86.4222
83.3262
83.3262
77.463
77.463
80.3411
80.3411
77.463
77.463
74.6879
74.6879
83.3262
83.3262
72.0123
72.0123
83.3262
83.3262
80.3411
80.3411
