# vtk DataFile Version 3.0
Tree
ASCII
DATASET POLYDATA
POINTS 1582 float
162774 225274 273.8
162774 225274 10273.8
141774 225774 23773.8
135774 213962 30773.8
137574 217505 28673.8
131774 207982 53773.8
133978 211601 44235.8
152774 203774 58881.8
135057 213372 39567.4
112254 200774 47773.8
133141 208389 52375
134774 199774 73077.8
148399 204487 57611.4
157774 193774 78053.8
133892 204426 61898.2
112774 193182 71773.8
154211 197845 70285.8
167774 185246 68773.8
116172 195322 66373.8
100774 187974 63773.8
157858 194079 76975.8
167282 185774 89773.8
132952 200934 70328.2
124470 193774 87773.8
112695 192989 70851.8
101774 185230 81773.8
127693 196495 81144.6
137774 195998 95773.8
165058 185921 69042.2
174530 165774 67773.8
166208 186476 86178.2
177786 174774 88773.8
104239 188557 65803.8
87029.8 173774 71773.8
169033 175909 66260.6
169774 164774 52345.8
125176 195193 87053
117774 193998 106774
173500 166135 67225.4
177774 148806 66773.8
174313 178285 87995
178774 173970 106774
102903 186039 79805
88773.8 176046 88773.8
134912 196132 94343.8
136774 195998 113774
169883 165400 55322.6
171982 147774 46773.8
90505 174616 69303.4
79773.8 159886 69773.8
119995 194356 100857
103774 190002 102774
166960 185985 88695
155774 193982 105774
176744 175827 88540.2
181998 156774 84773.8
177035 150142 67198.2
180022 133774 67773.8
177587 173418 99259
183998 156774 110774
89570.6 176688 88861.4
79509.8 169774 96773.8
94637 180241 85419.8
90773.8 183774 100654
118524 194738 105920
113774 197774 125610
118451 195843 113736
127162 196774 123774
156779 192627 105595
149774 195998 119774
149495 194919 117757
140774 195998 128774
157799 193865 77730.2
153774 193982 88773.8
178409 142613 67463
176002 132774 53773.8
180421 162490 85903.8
183986 153774 96773.8
160647 190103 99173
167290 188774 113774
83828.2 164988 71671.4
75773.8 151086 84773.8
181946 157900 108489
183998 141774 115774
183382 157112 110088
183998 155774 130774
80990.2 161416 70343
81601.8 139774 66773.8
177295 134117 58565
179218 117774 53773.8
176769 132479 54845.8
176774 125774 43977.8
145084 195534 125996
144774 195998 142774
182740 155004 92829.4
183998 140774 95773.8
82756.6 169954 95404.6
77549.8 153774 106774
183813 156175 124568
183998 140774 132774
114477 197286 124807
109774 198014 142774
81263 169871 96034.2
79773.8 172894 110774
79528.6 159922 102453
79773.8 161774 117938
78835 154327 83661
77501.8 146774 95773.8
77181.8 152577 84261.8
79485.8 140774 80773.8
183948 155882 130638
183998 155774 141774
81534.2 173311 105976
87773.8 185158 121774
82575 141888 66230.6
85601.8 128774 61773.8
78711.8 154598 105199
79773.8 140774 108798
149690 195674 119169
163970 190774 132774
110160 196652 140982
107122 193774 151774
165886 189093 113070
167970 188774 123774
112491 196994 132247
98773.8 193182 135774
183652 144204 128782
181990 126774 124774
143317 196155 139644
133774 198014 152774
183894 141803 131576
179814 137774 151774
178683 173047 105643
181774 169078 121774
182621 133397 126297
177994 123774 137774
84903.4 179708 114507
85773.8 172802 130774
180210 137804 146881
174774 130222 155774
86912.6 183523 119594
99773.8 193942 120774
183704 155243 140587
181994 151774 154774
144337 196045 141835
157774 192530 143774
78794.6 144315 81820.2
81553.8 129774 90773.8
107437 193269 148697
101774 182970 156774
84829.8 131964 64453.8
87653.8 118774 69773.8
137577 197329 150138
137082 197774 166774
77898.6 154021 106301
82345.8 147774 120774
181729 127552 124887
178550 115774 121774
86685 174731 129422
89773.8 173774 139890
85730.2 129116 62763.4
89773.8 117774 57549.8
107216 193622 150851
115774 193774 164578
87913.8 122991 59948.2
91445.8 122774 48773.8
103473 186059 154351
108774 182774 167882
179382 126661 134331
173938 112774 133774
86047 173381 130368
85533.8 161774 131774
177691 124546 137446
170774 118774 147978
87515.4 184667 121120
91005.8 183774 131774
174273 130787 154608
166774 123574 161774
102579 183291 156432
102306 175774 161774
181694 153897 153374
179774 153774 163938
168248 188020 122004
173978 182774 131774
82575.8 130787 88748.6
88357.8 116774 93773.8
113207 193728 160460
122506 199774 161774
81860.6 130078 90166.2
83553.8 127774 99773.8
138608 196792 164251
141966 194774 176774
89534.2 118881 57212.6
93773.8 109662 47773.8
80569 142826 108943
87501.8 128774 116774
183907 155970 128817
181998 167774 135774
82099.4 147747 67464.2
85017.8 143774 53773.8
148368 194990 142417
151970 192774 153774
179021 117134 121354
175786 102774 112774
87903.8 120619 70031.4
91773.8 110290 76773.8
139661 196181 158955
149294 190774 169774
174463 130572 155051
173774 137774 165970
89064.6 117520 72054.2
94773.8 105574 64773.8
102409 178630 159744
96357.8 167774 154774
174514 114418 132582
169774 102774 128882
83627 127460 97111
88309.8 119774 104774
108757 182705 166375
114774 178774 177966
174111 113267 133416
166410 107774 141774
87435.8 121150 101672
93773.8 110390 101774
115996 195542 160854
120774 200002 151774
168036 124429 159419
161326 115774 158774
81882.6 147533 117575
85773.8 139774 125890
175184 105129 115799
169938 94773.8 113774
167153 123831 161067
160774 127574 174774
179886 155077 161801
175774 162774 175086
103295 193339 135685
96773.8 184774 143958
171196 106267 129992
163774 101146 135774
178652 157386 165787
173202 149774 176774
91665.8 111488 74857
97773.8 100774 74881.8
102337 176631 161165
108254 167774 173774
163056 127291 171241
164774 132774 175970
91741.4 110649 76198.6
96289.8 105774 88773.8
85703 140329 124214
92773.8 128774 129958
182662 163643 135019
181970 167774 147774
91365.4 114479 101735
95773.8 110690 110774
105532 171848 167974
103554 158774 167774
164873 131947 174427
169774 140578 176774
94347 106796 67103.4
99773.8 96285.8 64773.8
171133 185450 129393
171258 185774 144774
164803 132526 175507
159774 132774 185130
113149 178715 175405
114774 170774 182030
175424 103275 112917
175394 97773.8 102774
182177 166535 143947
177950 176774 145774
174909 153138 174051
171774 154774 184794
152230 192952 151411
160774 189774 158798
171400 97418.2 113083
167266 87773.8 103774
175711 162159 174229
169774 168774 186902
158211 190727 156582
156774 188050 165774
96514.2 105654 86429.8
102290 99773.8 94773.8
169573 103436 129204
163974 96773.8 127774
95618.2 106501 81938.6
104774 96361.8 85773.8
92452.2 130791 130588
99705.8 122774 138774
165178 97732.6 127228
161774 90773.8 121118
95703.4 110776 108893
103774 103998 114774
179895 172064 144934
177774 175118 155774
98770.2 108200 111128
100538 109774 120774
175507 98254.2 102979
175774 94773.8 94813.8
92677.4 129379 130147
93773.8 120774 122978
107436 167706 172147
110774 154774 179970
171348 154119 183877
165774 154774 196866
99126.2 97791.8 64703
105614 86773.8 59773.8
169011 90299.8 104263
168774 85773.8 94881.8
101472 105931 113097
106774 97773.8 107126
95789 127103 134354
99005.8 131774 145774
167789 88531.8 103921
158774 81773.8 104798
177647 175152 153407
172774 181250 159774
169434 168617 184395
161774 175774 192434
147396 190951 169469
150774 186774 177958
100791 108446 117326
107774 105122 125774
161479 83801 104535
157774 79773.8 95997.8
97692.2 100493 65423
99657.8 94773.8 51773.8
102409 98950.6 83311.4
110774 89505.8 77773.8
175422 94873.4 95909
173774 88773.8 86889.8
93093.8 126109 127423
99773.8 116774 130890
109807 156725 177270
110306 143774 175774
105120 106385 122564
111774 98773.8 121114
104209 90671.4 62873.4
115506 80773.8 66773.8
168138 86409.4 96559.4
163774 81585.8 88773.8
98040.6 130373 142348
94773.8 140382 145774
110644 83893 63253.4
114282 77773.8 59773.8
110980 155085 179750
116318 148774 189774
162442 174229 190731
151774 178546 195774
113059 151377 183019
115538 140774 183774
95753.8 137379 144746
99773.8 141774 156010
174235 179420 157864
172774 177774 169114
114819 149971 186667
117574 155774 192774
107753 105336 125701
115774 102774 135114
114451 170795 181238
115478 161774 186774
174581 89467 87223.4
174774 84277.8 77773.8
110578 144362 175293
111706 134774 172774
165232 82529.8 89615.8
165774 79025.8 79773.8
172282 179182 164675
164774 182774 171958
114698 81135 65260.2
124666 73773.8 66773.8
110801 104363 129278
118774 97517.8 127774
116527 153569 190453
121574 149774 198774
95067.8 139481 145465
91561.8 149774 143774
111605 99760.2 121203
118774 93597.8 119774
114794 143955 183547
122774 136774 193882
99528.6 140167 154223
105774 138774 164970
115315 141728 183706
120774 129774 183114
167459 181097 170503
165182 179774 179774
165767 78956.6 80928.2
166774 71773.8 69037.8
114282 103251 133363
117586 107774 145774
116363 104345 137891
122774 102342 141774
115326 102917 134589
122774 97773.8 134886
118072 94866.2 120579
127586 90773.8 122774
121687 93311 121413
125774 87733.8 115774
88343.8 137396 127694
91549.8 137774 136774
116862 107828 144513
114774 114774 151970
122023 102878 141565
129774 102310 147774
122023 99022.6 135421
131774 96773.8 139286
99637.8 123318 138560
106774 118310 145774
126301 103275 146084
128774 107462 154774
126667 90961.8 121894
135774 85773.8 119890
133042 87330.2 120491
134774 83541.8 110774
93067.8 147151 145206
93553.8 156774 149774
104633 119812 143610
107774 124774 155190
135468 86287.4 119900
143542 83773.8 117774
107766 122919 152705
113774 121090 159774
128740 107385 154700
130774 110774 161958
133188 84876.2 113055
127774 83601.8 102774
134298 83942.2 111458
143774 79577.8 103774
127289 97808.2 137508
133774 91721.8 131774
129831 84086.2 106681
135774 80773.8 97165.8
131761 82603 101403
128758 81773.8 92773.8
112791 120894 157580
121774 115118 161774
118360 117313 160180
122330 119774 169774
121467 120123 169305
123774 122774 177110
139170 220647 26811.8
145122 214254 30497.8
143336 216172 29392.2
142774 211998 40773.8
136314 215025 30143.8
125774 209774 32117.8
144354 212711 39156.6
147774 209774 48005.8
132184 208104 53354.2
126774 206098 52773.8
148103 209594 46509
152858 205774 52773.8
128693 206525 53909.8
120774 201842 58773.8
149529 208448 48388.6
141774 204774 63293.8
120995 201886 58166.6
114774 197986 60773.8
[...]
CELL_DATA 1581
SCALARS radius float
LOOKUP_TABLE default
100
100
100
100
92.9635
92.9635
86.4222
86.4222
89.6332
89.6332
83.3262
83.3262
83.3262
83.3262
80.3411
80.3411
80.3411
80.3411
77.463
77.463
77.463
77.463
77.463
77.463
74.6879
74.6879
74.6879
74.6879
74.6879
74.6879
74.6879
74.6879
74.6879
74.6879
72.0123
72.0123
72.0123
72.0123
69.4326
69.4326
72.0123
72.0123
69.4326
69.4326
72.0123
72.0123
66.9452
66.9452
72.0123
72.0123
66.9452
66.9452
72.0123
72.0123
66.9452
66.9452
64.547
64.547
69.4326
69.4326
64.547
64.547
66.9452
66.9452
64.547
64.547
62.2346
62.2346
66.9452
66.9452
64.547
64.547
74.6879
74.6879
62.2346
62.2346
62.2346
62.2346
69.4326
69.4326
69.4326
69.4326
66.9452
66.9452
64.547
64.547
66.9452
66.9452
60.0051
60.0051
57.8555
57.8555
62.2346
62.2346
57.8555
57.8555
62.2346
62.2346
62.2346
62.2346
60.0051
60.0051
57.8555
57.8555
60.0051
60.0051
66.9452
66.9452
64.547
64.547
57.8555
57.8555
53.7845
53.7845
62.2346
62.2346
57.8555
57.8555
62.2346
62.2346
55.7829
55.7829
62.2346
62.2346
57.8555
57.8555
60.0051
60.0051
60.0051
60.0051
57.8555
57.8555
66.9452
66.9452
57.8555
57.8555
51.8578
51.8578
53.7845
53.7845
50
50
55.7829
55.7829
57.8555
57.8555
62.2346
62.2346
53.7845
53.7845
60.0051
60.0051
57.8555
57.8555
55.7829
55.7829
55.7829
55.7829
48.2088
48.2088
57.8555
57.8555
51.8578
51.8578
53.7845
53.7845
51.8578
51.8578
53.7845
53.7845
46.4818
46.4818
51.8578
51.8578
48.2088
48.2088
51.8578
51.8578
50
50
53.7845
53.7845
60.0051
60.0051
60.0051
60.0051
50
50
57.8555
57.8555
53.7845
53.7845
51.8578
51.8578
51.8578
51.8578
60.0051
60.0051
64.547
64.547
55.7829
55.7829
53.7845
53.7845
57.8555
57.8555
55.7829
55.7829
50
50
55.7829
55.7829
48.2088
48.2088
51.8578
51.8578
55.7829
55.7829
46.4818
46.4818
50
50
53.7845
53.7845
48.2088
48.2088
50
50
53.7845
53.7845
50
50
48.2088
48.2088
51.8578
51.8578
53.7845
53.7845
50
50
48.2088
48.2088
53.7845
53.7845
46.4818
46.4818
43.2111
43.2111
51.8578
51.8578
51.8578
51.8578
55.7829
55.7829
51.8578
51.8578
44.8166
44.8166
41.6631
41.6631
53.7845
53.7845
55.7829
55.7829
40.1706
40.1706
43.2111
43.2111
48.2088
48.2088
53.7845
53.7845
44.8166
44.8166
53.7845
53.7845
48.2088
48.2088
46.4818
46.4818
50
50
48.2088
48.2088
48.2088
48.2088
50
50
48.2088
48.2088
46.4818
46.4818
50
50
51.8578
51.8578
48.2088
48.2088
46.4818
46.4818
46.4818
46.4818
43.2111
43.2111
41.6631
41.6631
50
50
46.4818
46.4818
46.4818
46.4818
46.4818
46.4818
44.8166
44.8166
48.2088
48.2088
43.2111
43.2111
51.8578
51.8578
46.4818
46.4818
41.6631
41.6631
51.8578
51.8578
46.4818
46.4818
44.8166
44.8166
44.8166
44.8166
41.6631
41.6631
44.8166
44.8166
44.8166
44.8166
44.8166
44.8166
43.2111
43.2111
43.2111
43.2111
40.1706
40.1706
40.1706
40.1706
38.7315
38.7315
41.6631
41.6631
44.8166
44.8166
37.344
37.344
41.6631
41.6631
41.6631
41.6631
43.2111
43.2111
38.7315
38.7315
43.2111
43.2111
43.2111
43.2111
41.6631
41.6631
40.1706
40.1706
36.0062
36.0062
40.1706
40.1706
43.2111
43.2111
37.344
37.344
37.344
37.344
36.0062
36.0062
41.6631
41.6631
41.6631
41.6631
38.7315
38.7315
36.0062
36.0062
37.344
37.344
41.6631
41.6631
40.1706
40.1706
50
50
34.7163
34.7163
34.7163
34.7163
36.0062
36.0062
44.8166
44.8166
33.4726
33.4726
38.7315
38.7315
37.344
37.344
38.7315
38.7315
43.2111
43.2111
36.0062
36.0062
41.6631
41.6631
31.1173
31.1173
36.0062
36.0062
34.7163
34.7163
34.7163
34.7163
34.7163
34.7163
33.4726
33.4726
40.1706
40.1706
38.7315
38.7315
37.344
37.344
96.4176
96.4176
92.9635
92.9635
89.6332
89.6332
89.6332
89.6332
80.3411
80.3411
86.4222
86.4222
77.463
77.463
83.3262
83.3262
72.0123
72.0123
80.3411
80.3411
77.463
77.463
69.4326
69.4326
69.4326
69.4326
74.6879
74.6879
74.6879
74.6879
72.0123
72.0123
69.4326
69.4326
77.463
77.463
72.0123
72.0123
72.0123
72.0123
69.4326
69.4326
69.4326
69.4326
72.0123
72.0123
66.9452
66.9452
69.4326
69.4326
69.4326
69.4326
69.4326
69.4326
64.547
64.547
64.547
64.547
66.9452
66.9452
69.4326
69.4326
69.4326
69.4326
66.9452
66.9452
64.547
64.547
66.9452
66.9452
62.2346
62.2346
66.9452
66.9452
62.2346
62.2346
69.4326
69.4326
62.2346
62.2346
64.547
64.547
66.9452
66.9452
62.2346
62.2346
66.9452
66.9452
64.547
64.547
60.0051
60.0051
64.547
64.547
60.0051
60.0051
60.0051
60.0051
64.547
64.547
62.2346
62.2346
60.0051
60.0051
57.8555
57.8555
62.2346
62.2346
57.8555
57.8555
64.547
64.547
62.2346
62.2346
60.0051
60.0051
57.8555
57.8555
48.2088
48.2088
62.2346
62.2346
55.7829
55.7829
64.547
64.547
55.7829
55.7829
64.547
64.547
60.0051
60.0051
62.2346
62.2346
60.0051
60.0051
62.2346
62.2346
60.0051
60.0051
57.8555
57.8555
55.7829
55.7829
62.2346
62.2346
64.547
64.547
57.8555
57.8555
53.7845
53.7845
60.0051
60.0051
57.8555
57.8555
55.7829
55.7829
62.2346
62.2346
62.2346
62.2346
55.7829
55.7829
64.547
64.547
55.7829
55.7829
55.7829
55.7829
57.8555
57.8555
55.7829
55.7829
55.7829
55.7829
55.7829
55.7829
51.8578
51.8578
57.8555
57.8555
53.7845
53.7845
57.8555
57.8555
55.7829
55.7829
62.2346
62.2346
55.7829
55.7829
53.7845
53.7845
55.7829
55.7829
53.7845
53.7845
51.8578
51.8578
60.0051
60.0051
53.7845
53.7845
50
50
55.7829
55.7829
51.8578
51.8578
53.7845
53.7845
51.8578
51.8578
53.7845
53.7845
50
50
55.7829
55.7829
50
50
50
50
60.0051
60.0051
50
50
55.7829
55.7829
57.8555
57.8555
57.8555
57.8555
53.7845
53.7845
50
50
46.4818
46.4818
48.2088
48.2088
51.8578
51.8578
51.8578
51.8578
51.8578
51.8578
46.4818
46.4818
51.8578
51.8578
44.8166
44.8166
51.8578
51.8578
50
50
50
50
48.2088
48.2088
57.8555
57.8555
46.4818
46.4818
46.4818
46.4818
43.2111
43.2111
50
50
48.2088
48.2088
51.8578
51.8578
53.7845
53.7845
50
50
44.8166
44.8166
50
50
46.4818
46.4818
44.8166
44.8166
46.4818
46.4818
50
50
46.4818
46.4818
51.8578
51.8578
50
50
48.2088
48.2088
44.8166
44.8166
50
50
53.7845
53.7845
51.8578
51.8578
48.2088
48.2088
51.8578
51.8578
46.4818
46.4818
48.2088
48.2088
50
50
48.2088
48.2088
46.4818
46.4818
43.2111
43.2111
46.4818
46.4818
46.4818
46.4818
48.2088
48.2088
46.4818
46.4818
44.8166
44.8166
46.4818
46.4818
43.2111
43.2111
46.4818
46.4818
44.8166
44.8166
51.8578
51.8578
40.1706
40.1706
44.8166
44.8166
44.8166
44.8166
43.2111
43.2111
51.8578
51.8578
41.6631
41.6631
41.6631
41.6631
37.344
37.344
40.1706
40.1706
36.0062
36.0062
50
50
38.7315
38.7315
43.2111
43.2111
37.344
37.344
46.4818
46.4818
44.8166
44.8166
48.2088
48.2088
43.2111
43.2111
41.6631
41.6631
50
50
50
50
43.2111
43.2111
41.6631
41.6631
38.7315
38.7315
40.1706
40.1706
41.6631
41.6631
44.8166
44.8166
46.4818
46.4818
43.2111
43.2111
48.2088
48.2088
48.2088
48.2088
38.7315
38.7315
38.7315
38.7315
40.1706
40.1706
43.2111
43.2111
40.1706
40.1706
38.7315
38.7315
41.6631
41.6631
40.1706
40.1706
41.6631
41.6631
41.6631
41.6631
36.0062
36.0062
40.1706
40.1706
37.344
37.344
40.1706
40.1706
37.344
37.344
48.2088
48.2088
38.7315
38.7315
34.7163
34.7163
36.0062
36.0062
34.7163
34.7163
46.4818
46.4818
34.7163
34.7163
40.1706
40.1706
36.0062
36.0062
50
50
37.344
37.344
32.2735
32.2735
41.6631
41.6631
30.0026
30.0026
37.344
37.344
40.1706
40.1706
32.2735
32.2735
37.344
37.344
36.0062
36.0062
38.7315
38.7315
33.4726
33.4726
32.2735
32.2735
36.0062
36.0062
36.0062
36.0062
34.7163
34.7163
86.4222
86.4222
86.4222
86.4222
83.3262
83.3262
86.4222
86.4222
80.3411
80.3411
80.3411
80.3411
74.6879
74.6879
74.6879
74.6879
72.0123
72.0123
69.4326
69.4326
66.9452
66.9452
66.9452
66.9452
77.463
77.463
72.0123
72.0123
64.547
64.547
74.6879
74.6879
74.6879
74.6879
66.9452
66.9452
66.9452
66.9452
72.0123
72.0123
69.4326
69.4326
64.547
64.547
62.2346
62.2346
62.2346
62.2346
66.9452
66.9452
62.2346
62.2346
69.4326
69.4326
69.4326
69.4326
64.547
64.547
69.4326
69.4326
62.2346
62.2346
64.547
64.547
60.0051
60.0051
64.547
64.547
66.9452
66.9452
62.2346
62.2346
66.9452
66.9452
64.547
64.547
60.0051
60.0051
64.547
64.547
64.547
64.547
60.0051
60.0051
60.0051
60.0051
64.547
64.547
62.2346
62.2346
57.8555
57.8555
62.2346
62.2346
57.8555
57.8555
57.8555
57.8555
60.0051
60.0051
62.2346
62.2346
57.8555
57.8555
62.2346
62.2346
69.4326
69.4326
57.8555
57.8555
60.0051
60.0051
57.8555
57.8555
66.9452
66.9452
55.7829
55.7829
64.547
64.547
57.8555
57.8555
55.7829
55.7829
57.8555
57.8555
57.8555
57.8555
55.7829
55.7829
62.2346
62.2346
53.7845
53.7845
60.0051
60.0051
53.7845
53.7845
55.7829
55.7829
55.7829
55.7829
55.7829
55.7829
53.7845
53.7845
64.547
64.547
55.7829
55.7829
60.0051
60.0051
57.8555
57.8555
57.8555
57.8555
55.7829
55.7829
53.7845
53.7845
55.7829
55.7829
62.2346
62.2346
50
50
48.2088
48.2088
55.7829
55.7829
57.8555
57.8555
51.8578
51.8578
55.7829
55.7829
53.7845
53.7845
46.4818
46.4818
50
50
50
50
53.7845
53.7845
55.7829
55.7829
50
50
48.2088
48.2088
48.2088
48.2088
55.7829
55.7829
53.7845
53.7845
50
50
51.8578
51.8578
53.7845
53.7845
53.7845
53.7845
50
50
51.8578
51.8578
46.4818
46.4818
51.8578
51.8578
53.7845
53.7845
46.4818
46.4818
44.8166
44.8166
44.8166
44.8166
51.8578
51.8578
55.7829
55.7829
48.2088
48.2088
53.7845
53.7845
50
50
44.8166
44.8166
44.8166
44.8166
48.2088
48.2088
48.2088
48.2088
50
50
48.2088
48.2088
50
50
43.2111
43.2111
51.8578
51.8578
53.7845
53.7845
50
50
51.8578
51.8578
50
50
48.2088
48.2088
44.8166
44.8166
48.2088
48.2088
53.7845
53.7845
50
50
50
50
43.2111
43.2111
46.4818
46.4818
46.4818
46.4818
51.8578
51.8578
50
50
43.2111
43.2111
48.2088
48.2088
48.2088
48.2088
44.8166
44.8166
40.1706
40.1706
48.2088
48.2088
41.6631
41.6631
50
50
44.8166
44.8166
38.7315
38.7315
41.6631
41.6631
38.7315
38.7315
41.6631
41.6631
50
50
48.2088
48.2088
44.8166
44.8166
48.2088
48.2088
50
50
48.2088
48.2088
43.2111
43.2111
44.8166
44.8166
40.1706
40.1706
41.6631
41.6631
40.1706
40.1706
38.7315
38.7315
41.6631
41.6631
40.1706
40.1706
48.2088
48.2088
40.1706
40.1706
48.2088
48.2088
41.6631
41.6631
44.8166
44.8166
46.4818
46.4818
40.1706
40.1706
46.4818
46.4818
44.8166
44.8166
44.8166
44.8166
44.8166
44.8166
43.2111
43.2111
44.8166
44.8166
43.2111
43.2111
40.1706
40.1706
37.344
37.344
43.2111
43.2111
38.7315
38.7315
46.4818
46.4818
46.4818
46.4818
100
96.4176
96.4176
89.6332
89.6332
86.4222
86.4222
83.3262
83.3262
92.9635
92.9635
80.3411
80.3411
89.6332
89.6332
86.4222
86.4222
77.463
77.463
83.3262
83.3262
83.3262
83.3262
80.3411
80.3411
80.3411
80.3411
74.6879
74.6879
77.463
77.463
77.463
77.463
72.0123
72.0123
74.6879
74.6879
74.6879
74.6879
69.4326
69.4326
66.9452
66.9452
72.0123
72.0123
69.4326
69.4326
72.0123
72.0123
64.547
64.547
69.4326
69.4326
69.4326
69.4326
62.2346
62.2346
66.9452
66.9452
66.9452
66.9452
64.547
64.547
66.9452
66.9452
64.547
64.547
77.463
77.463
62.2346
62.2346
74.6879
74.6879
66.9452
66.9452
64.547
64.547
62.2346
62.2346
62.2346
62.2346
60.0051
60.0051
60.0051
60.0051
62.2346
62.2346
62.2346
62.2346
60.0051
60.0051
60.0051
60.0051
57.8555
57.8555
60.0051
60.0051
57.8555
57.8555
55.7829
55.7829
57.8555
57.8555
60.0051
60.0051
60.0051
60.0051
57.8555
57.8555
55.7829
55.7829
62.2346
62.2346
55.7829
55.7829
53.7845
53.7845
51.8578
51.8578
57.8555
57.8555
53.7845
53.7845
50
50
55.7829
55.7829
51.8578
51.8578
55.7829
55.7829
53.7845
53.7845
53.7845
53.7845
53.7845
53.7845
48.2088
48.2088
50
50
51.8578
51.8578
46.4818
46.4818
51.8578
51.8578
50
50
51.8578
51.8578
44.8166
44.8166
50
50
51.8578
51.8578
50
50
48.2088
48.2088
48.2088
48.2088
50
50
48.2088
48.2088
44.8166
44.8166
48.2088
48.2088
43.2111
43.2111
43.2111
43.2111
41.6631
41.6631
40.1706
40.1706
48.2088
48.2088
46.4818
46.4818
41.6631
41.6631
44.8166
44.8166
46.4818
46.4818
44.8166
44.8166
46.4818
46.4818
40.1706
40.1706
38.7315
38.7315
37.344
37.344
44.8166
44.8166
44.8166
44.8166
36.0062
36.0062
38.7315
38.7315
37.344
37.344
36.0062
36.0062
34.7163
34.7163
34.7163
34.7163
33.4726
33.4726
43.2111
43.2111
33.4726
33.4726
32.2735
32.2735
41.6631
41.6631
31.1173
31.1173
33.4726
33.4726
31.1173
31.1173
30.0026
30.0026
32.2735
32.2735
30.0026
30.0026
28.9278
28.9278
28.9278
28.9278
40.1706
40.1706
31.1173
31.1173
28.9278
28.9278
27.8914
27.8914
30.0026
30.0026
38.7315
38.7315
28.9278
28.9278
27.8914
27.8914
37.344
37.344
72.0123
72.0123
69.4326
69.4326
92.9635
92.9635
83.3262
83.3262
86.4222
86.4222
77.463
77.463
74.6879
74.6879
72.0123
72.0123
69.4326
69.4326
80.3411
80.3411
