# vtk DataFile Version 3.0
Tree
ASCII
DATASET POLYDATA
POINTS 1582 float
162774 225274 273.8
162774 225274 10273.8
141774 225774 23773.8
135774 213218 31773.8
137934 217874 31553.8
132774 207914 54773.8
134735 211699 45950.2
152774 203774 58881.8
134146 210563 48597.4
113590 200774 51773.8
133474 207985 54299.4
132774 198774 73885.8
148183 204653 58060.2
154774 194774 77953.8
133096 203011 64876.2
111774 192006 72773.8
152797 197738 71985.8
167774 185258 72773.8
115923 194385 69381.4
100294 187774 63773.8
159686 191997 72348.2
167390 185774 90773.8
133307 199765 73236.6
135774 195262 91773.8
111878 191907 72435
99773.8 183994 80773.8
165347 187279 72646.2
171950 168774 61773.8
166763 185957 86359
177774 175082 94773.8
103405 186368 78272.2
88321.8 175774 69773.8
135034 196613 86212.6
121774 193998 100774
167856 180247 68514.6
178018 166774 78773.8
171133 169632 63313.8
174014 152774 59773.8
105947 188029 76521
105774 188774 96225.8
135757 196162 91152.6
138774 195998 110774
97673.4 182342 75042.6
86289.8 173774 85773.8
137627 196060 103318
151078 195774 107774
174496 177725 94348.6
181886 166774 112774
90398.2 175848 71617.8
79773.8 159886 69773.8
124057 195379 100314
114774 195942 115774
173150 157831 60835.8
181974 141774 75773.8
178381 171002 101977
183774 157082 102774
105840 188491 88737.8
93773.8 183958 96773.8
143815 195929 105367
154774 193886 94773.8
178621 147875 70097.4
180002 129774 64773.8
180431 144581 73162.6
183994 149774 88773.8
104822 188932 95157
98773.8 190774 111590
94960.2 183199 95469
80773.8 174774 103594
85029.8 177301 101156
76773.8 163294 95773.8
82961 164675 70327
77549.8 157774 82773.8
180675 166632 108971
183998 152774 118774
138981 196025 110368
143774 195998 130774
149943 195000 107299
165282 189774 111774
117559 195773 111136
125774 198002 129774
121995 196977 121200
112774 198002 132774
80729.8 161323 69939.8
79565.8 144774 71773.8
179349 133401 64391
178002 120774 51773.8
179806 130862 64659
183998 125774 77773.8
183101 154695 115567
183998 139774 114774
183729 153350 117812
183998 155774 132774
80532.6 149586 69731.8
83561.8 137774 61773.8
79001.8 158097 80533
77485.8 146774 90773.8
183441 149025 115266
183998 139774 130774
163148 188926 110902
175190 180774 113774
141569 196010 121387
159078 193774 126774
79911 168617 97819
78161.8 152774 109774
182070 146969 80343.8
183998 134774 92773.8
88009 179071 99450.2
84773.8 181774 117150
114703 197693 131614
108774 197774 146810
178406 124562 55559
185974 125774 36773.8
143185 195971 130289
145082 195774 150774
78177 149131 89689
79497.8 141774 102774
157117 193191 125481
167082 189774 126774
124893 197987 129419
126774 199874 143774
112925 197717 136173
100774 193878 138774
182693 141054 130011
179974 133774 145774
182977 144083 124408
182018 128774 124774
142975 196155 144024
134774 198002 153774
158489 193599 126386
163082 191774 137774
183827 154805 131353
183774 155774 149074
181660 138288 136001
178094 124774 136774
109787 196494 144482
105634 188774 156774
77693 147481 90448.2
79769.8 132774 88773.8
181268 166981 112235
181886 168774 122774
83473.8 138688 63782.6
88773.8 121522 60773.8
181977 131153 123087
180774 119774 119170
86067.4 180204 114715
87773.8 175774 133890
179701 134853 144841
174774 132774 157958
104419 195030 137993
93773.8 189774 130118
79733 156443 108798
81773.8 147774 119950
137924 197340 152181
136774 197890 166774
86343.4 176633 123428
83773.8 165774 129018
180289 135883 142189
180774 143594 152774
106075 189623 153455
100774 179954 156774
87299.4 127425 60287
91493.8 120774 49773.8
105801 189097 155513
115774 193546 164774
179892 134097 145494
172774 121774 149318
105684 188871 156395
108774 182774 167882
178089 126018 135967
174002 113774 134774
88331.4 123293 60627.8
89661.8 112774 72773.8
165636 189436 126565
175974 180774 127774
182215 155415 147851
180014 155774 161774
143775 196010 146589
154026 192774 148774
80189.8 134899 90205.8
86773.8 119594 95773.8
81161.4 150375 116604
84997.8 133774 115774
175228 117447 135132
176038 111774 124774
83535.4 138048 62376.6
87525.8 137774 49773.8
137925 197201 163814
142774 194034 173774
174844 132261 155511
165774 125106 165774
88641 122053 60729.8
93553.8 107774 59773.8
183947 155483 132347
182014 165774 135774
90651 121170 52472.2
93561.8 110774 48773.8
88186.6 175446 132869
93481.8 171774 146774
175735 111629 125568
175882 104774 115774
89775.4 174344 137041
89485.8 163774 140774
173701 123197 147102
167950 112774 145774
91776.6 172956 142297
95773.8 179774 147970
173853 114961 135342
167774 106774 137326
81590.2 148554 118946
85713.8 149774 131774
173052 122201 148653
164774 117574 156774
85773 122351 93430.6
92321.8 109774 89773.8
101961 180579 156298
99029.8 165774 159774
174795 132620 157224
174774 140774 165958
109022 182837 167335
112310 177774 175774
175583 113375 128437
169938 102774 127774
86473.4 120421 95071
93737.8 110774 102774
134841 197943 153662
123774 199998 158774
167803 127551 164151
162774 128774 173974
179531 156219 161049
175774 157774 175098
84603.8 138604 117632
91773.8 126774 126970
172873 183373 127411
177774 178774 140810
177851 155597 166379
174774 148774 172026
90405.8 114074 69774.2
97541.8 101774 74773.8
145213 195375 149759
150774 192062 158774
174780 138328 163337
169774 136578 172774
93131 109823 61199.8
97657.8 98773.8 63773.8
100847 174953 157619
105774 168774 170806
174975 105493 118517
169774 92773.8 110882
176425 158097 171583
174046 166774 176774
162779 191634 135399
169774 187254 142774
175969 157871 174043
172526 151774 179774
85442.6 134417 116161
89609.8 120774 111774
141513 194573 172905
143122 191774 186774
91696.6 112399 92343.8
97573.8 104774 94773.8
103902 171122 165795
103554 156774 167774
176765 178755 138727
180022 169774 151774
163992 129284 172849
161774 134774 184886
86754.6 135055 120433
89477.8 137774 130774
171019 104720 127113
166774 96229.8 121774
90567.8 129812 125915
95705.8 127774 135774
173415 101677 116227
176526 99773.8 101774
174950 163477 174801
170774 162774 186006
105915 169503 170187
112534 166774 181774
170477 94477.8 111161
167774 87773.8 102570
95810.6 107061 94045
102774 98249.8 85773.8
152343 193173 149304
161774 189386 156774
172790 152160 178674
167774 142774 182970
92697 112959 102514
100314 107774 115774
142396 194195 173513
152774 188774 169954
171736 164140 182612
167206 170774 189774
104398 164371 167885
108314 158774 175774
166792 97258.2 122541
160774 87773.8 116886
91411.8 127685 126653
93773.8 118774 120882
168801 90321.4 105835
173774 92317.8 95773.8
171063 163184 184987
166102 152774 192774
97372.6 100357 62519
104350 88773.8 59773.8
170262 103358 127575
161950 96773.8 130774
98412.2 108573 110713
105774 100522 112774
168195 187809 142323
171990 182774 153774
101846 99862.2 88427
109578 92773.8 88773.8
176148 99778.2 103025
177774 98469.8 94773.8
100991 94821.4 62343
105774 89773.8 68125.8
168148 88449.4 102742
167290 84773.8 93773.8
94878.6 128744 134652
99705.8 130774 146774
100553 107736 114983
106774 105506 122774
108240 158885 175489
112526 152774 183774
96099.8 103197 62123
99553.8 95773.8 53773.8
167886 87976.6 102621
156774 80773.8 99949.8
104531 90964.2 65169.8
111586 82773.8 64773.8
167389 169823 188330
159774 176774 193274
110211 156074 179300
111510 144774 177774
172711 91562.6 96978.2
175774 90773.8 84973.8
95391.4 128143 135347
99517.8 118774 131774
170995 183545 153283
172774 179774 165110
98307.4 131206 144201
99025.8 137774 151774
146339 192135 172161
153774 183774 181970
104907 106175 120437
112686 97773.8 120774
172240 180905 161562
177774 171890 163774
98522.6 133176 146473
94325.8 141774 145774
160710 175425 191729
151774 180546 191774
112461 152825 183406
116526 146774 189774
106793 105518 122683
114774 102774 131978
114981 149073 187354
116774 138774 184026
166649 84843.8 94595.8
163774 79773.8 83897.8
110626 83725.4 64180.6
118334 73773.8 59773.8
112506 152789 183663
117510 158774 191774
95585 139195 145983
96357.8 149774 153774
159507 189850 156157
163774 185398 166774
97949.8 122334 133132
103774 116774 138886
164636 81295 87107.4
171774 82225.8 78773.8
111728 145310 177756
113774 133774 175966
114788 78351.4 61801
123774 75141.8 67773.8
111542 99902.2 121523
119518 96773.8 126774
116063 147464 189048
121570 151774 198774
99474.2 136217 151061
103774 140774 162962
167349 81648.6 83940.6
165774 74773.8 73249.8
113160 137235 176503
109774 132774 166970
163529 185102 165896
167774 179254 175774
116387 146981 189556
122370 141774 196774
113039 104107 131120
117774 107002 143774
116990 140359 185029
121774 130230 184774
118808 136509 184932
123774 133774 192442
115211 98463 123938
122774 91461.8 118774
114838 105207 135928
123570 100774 138774
119295 94682.2 121149
125774 91773.8 125894
89416.6 137681 130532
91593.8 139774 138774
86099 150260 130994
89477.8 151774 138774
103608 157705 167244
102314 148774 163774
116466 107322 142240
115774 113774 152434
117381 107098 143314
126438 104774 149774
122361 101799 138705
131774 99549.8 143774
123830 92646.2 124471
133774 86773.8 119322
130791 88535.4 120867
130774 84773.8 109958
115981 111838 149376
108374 120774 151774
90024.2 165648 140773
92773.8 156774 147970
124863 105821 149289
132658 107774 158774
133471 87077.8 119349
140774 83533.8 114774
110688 132998 168563
109774 125774 159962
99702.2 130828 146582
104774 129590 154774
131899 85077 111437
134774 81557.8 102774
115836 113193 151516
123774 112774 159362
133681 82895 106066
142774 79773.8 104790
125191 92035.4 125467
133774 91721.8 131774
110341 130253 165294
117574 120774 164774
134446 81959 103761
130334 81773.8 94773.8
117660 121843 164592
122774 116774 163982
115481 125169 166039
124578 119774 172774
130429 107947 157221
131774 112774 165970
139648 219185 30044.2
142774 211998 35773.8
136422 214615 31707.8
127774 209978 36773.8
142350 213767 35541
145774 210774 45161.8
128449 210527 36957.8
122774 207966 41773.8
146187 210621 44444.6
149774 207774 51929.8
132984 207935 54631.4
124774 203774 58965.8
122533 205777 47238.6
[...]
CELL_DATA 1581
SCALARS radius float
LOOKUP_TABLE default
100
100
100
100
92.9635
92.9635
89.6332
89.6332
86.4222
86.4222
83.3262
83.3262
86.4222
86.4222
80.3411
80.3411
83.3262
83.3262
77.463
77.463
80.3411
80.3411
77.463
77.463
74.6879
74.6879
77.463
77.463
77.463
77.463
69.4326
69.4326
74.6879
74.6879
74.6879
74.6879
72.0123
72.0123
72.0123
72.0123
72.0123
72.0123
66.9452
66.9452
69.4326
69.4326
74.6879
74.6879
64.547
64.547
72.0123
72.0123
66.9452
66.9452
72.0123
72.0123
69.4326
69.4326
64.547
64.547
64.547
64.547
62.2346
62.2346
64.547
64.547
66.9452
66.9452
62.2346
62.2346
62.2346
62.2346
69.4326
69.4326
66.9452
66.9452
62.2346
62.2346
69.4326
69.4326
66.9452
66.9452
60.0051
60.0051
60.0051
60.0051
57.8555
57.8555
66.9452
66.9452
64.547
64.547
57.8555
57.8555
60.0051
60.0051
64.547
64.547
57.8555
57.8555
64.547
64.547
60.0051
60.0051
60.0051
60.0051
64.547
64.547
64.547
64.547
55.7829
55.7829
62.2346
62.2346
57.8555
57.8555
62.2346
62.2346
62.2346
62.2346
62.2346
62.2346
60.0051
60.0051
62.2346
62.2346
60.0051
60.0051
60.0051
60.0051
60.0051
60.0051
57.8555
57.8555
60.0051
60.0051
55.7829
55.7829
66.9452
66.9452
55.7829
55.7829
57.8555
57.8555
60.0051
60.0051
53.7845
53.7845
57.8555
57.8555
57.8555
57.8555
57.8555
57.8555
57.8555
57.8555
55.7829
55.7829
57.8555
57.8555
51.8578
51.8578
55.7829
55.7829
51.8578
51.8578
53.7845
53.7845
55.7829
55.7829
50
50
57.8555
57.8555
57.8555
57.8555
57.8555
57.8555
53.7845
53.7845
55.7829
55.7829
53.7845
53.7845
53.7845
53.7845
53.7845
53.7845
50
50
48.2088
48.2088
57.8555
57.8555
48.2088
48.2088
55.7829
55.7829
50
50
53.7845
53.7845
50
50
51.8578
51.8578
51.8578
51.8578
53.7845
53.7845
48.2088
48.2088
51.8578
51.8578
55.7829
55.7829
48.2088
48.2088
48.2088
48.2088
51.8578
51.8578
50
50
55.7829
55.7829
48.2088
48.2088
53.7845
53.7845
53.7845
53.7845
55.7829
55.7829
51.8578
51.8578
46.4818
46.4818
55.7829
55.7829
44.8166
44.8166
46.4818
46.4818
53.7845
53.7845
48.2088
48.2088
50
50
57.8555
57.8555
48.2088
48.2088
51.8578
51.8578
50
50
46.4818
46.4818
51.8578
51.8578
51.8578
51.8578
44.8166
44.8166
51.8578
51.8578
48.2088
48.2088
50
50
46.4818
46.4818
48.2088
48.2088
50
50
44.8166
44.8166
44.8166
44.8166
53.7845
53.7845
46.4818
46.4818
48.2088
48.2088
48.2088
48.2088
44.8166
44.8166
50
50
46.4818
46.4818
48.2088
48.2088
43.2111
43.2111
43.2111
43.2111
43.2111
43.2111
46.4818
46.4818
46.4818
46.4818
53.7845
53.7845
43.2111
43.2111
43.2111
43.2111
41.6631
41.6631
41.6631
41.6631
48.2088
48.2088
44.8166
44.8166
48.2088
48.2088
44.8166
44.8166
40.1706
40.1706
40.1706
40.1706
41.6631
41.6631
46.4818
46.4818
41.6631
41.6631
46.4818
46.4818
50
50
43.2111
43.2111
46.4818
46.4818
43.2111
43.2111
48.2088
48.2088
41.6631
41.6631
38.7315
38.7315
44.8166
44.8166
41.6631
41.6631
43.2111
43.2111
38.7315
38.7315
38.7315
38.7315
43.2111
43.2111
40.1706
40.1706
48.2088
48.2088
44.8166
44.8166
37.344
37.344
43.2111
43.2111
37.344
37.344
41.6631
41.6631
41.6631
41.6631
40.1706
40.1706
34.7163
34.7163
41.6631
41.6631
44.8166
44.8166
40.1706
40.1706
40.1706
40.1706
40.1706
40.1706
38.7315
38.7315
40.1706
40.1706
38.7315
38.7315
38.7315
38.7315
46.4818
46.4818
50
50
46.4818
46.4818
37.344
37.344
36.0062
36.0062
37.344
37.344
37.344
37.344
36.0062
36.0062
36.0062
36.0062
50
50
34.7163
34.7163
34.7163
34.7163
40.1706
40.1706
41.6631
41.6631
34.7163
34.7163
34.7163
34.7163
33.4726
33.4726
36.0062
36.0062
38.7315
38.7315
32.2735
32.2735
36.0062
36.0062
37.344
37.344
33.4726
33.4726
96.4176
96.4176
89.6332
89.6332
92.9635
92.9635
83.3262
83.3262
89.6332
89.6332
80.3411
80.3411
83.3262
83.3262
74.6879
74.6879
86.4222
86.4222
72.0123
72.0123
83.3262
83.3262
80.3411
80.3411
80.3411
80.3411
77.463
77.463
77.463
77.463
80.3411
80.3411
74.6879
74.6879
72.0123
72.0123
72.0123
72.0123
80.3411
80.3411
69.4326
69.4326
72.0123
72.0123
69.4326
69.4326
77.463
77.463
74.6879
74.6879
69.4326
69.4326
69.4326
69.4326
66.9452
66.9452
72.0123
72.0123
72.0123
72.0123
62.2346
62.2346
72.0123
72.0123
69.4326
69.4326
69.4326
69.4326
69.4326
69.4326
69.4326
69.4326
66.9452
66.9452
60.0051
60.0051
66.9452
66.9452
66.9452
66.9452
62.2346
62.2346
60.0051
60.0051
66.9452
66.9452
69.4326
69.4326
66.9452
66.9452
64.547
64.547
64.547
64.547
62.2346
62.2346
62.2346
62.2346
57.8555
57.8555
64.547
64.547
60.0051
60.0051
64.547
64.547
57.8555
57.8555
62.2346
62.2346
66.9452
66.9452
55.7829
55.7829
57.8555
57.8555
62.2346
62.2346
69.4326
69.4326
64.547
64.547
64.547
64.547
60.0051
60.0051
60.0051
60.0051
57.8555
57.8555
60.0051
60.0051
74.6879
74.6879
60.0051
60.0051
66.9452
66.9452
60.0051
60.0051
53.7845
53.7845
66.9452
66.9452
60.0051
60.0051
57.8555
57.8555
55.7829
55.7829
57.8555
57.8555
57.8555
57.8555
53.7845
53.7845
57.8555
57.8555
57.8555
57.8555
60.0051
60.0051
55.7829
55.7829
51.8578
51.8578
62.2346
62.2346
62.2346
62.2346
53.7845
53.7845
55.7829
55.7829
53.7845
53.7845
51.8578
51.8578
48.2088
48.2088
55.7829
55.7829
51.8578
51.8578
57.8555
57.8555
55.7829
55.7829
60.0051
60.0051
60.0051
60.0051
53.7845
53.7845
60.0051
60.0051
55.7829
55.7829
57.8555
57.8555
57.8555
57.8555
51.8578
51.8578
55.7829
55.7829
57.8555
57.8555
53.7845
53.7845
55.7829
55.7829
53.7845
53.7845
53.7845
53.7845
55.7829
55.7829
50
50
55.7829
55.7829
51.8578
51.8578
53.7845
53.7845
50
50
55.7829
55.7829
48.2088
48.2088
50
50
51.8578
51.8578
51.8578
51.8578
50
50
53.7845
53.7845
50
50
55.7829
55.7829
51.8578
51.8578
53.7845
53.7845
51.8578
51.8578
51.8578
51.8578
48.2088
48.2088
48.2088
48.2088
51.8578
51.8578
46.4818
46.4818
51.8578
51.8578
46.4818
46.4818
50
50
50
50
46.4818
46.4818
48.2088
48.2088
55.7829
55.7829
44.8166
44.8166
51.8578
51.8578
48.2088
48.2088
53.7845
53.7845
46.4818
46.4818
50
50
55.7829
55.7829
55.7829
55.7829
48.2088
48.2088
46.4818
46.4818
46.4818
46.4818
43.2111
43.2111
44.8166
44.8166
53.7845
53.7845
43.2111
43.2111
46.4818
46.4818
51.8578
51.8578
41.6631
41.6631
44.8166
44.8166
48.2088
48.2088
41.6631
41.6631
48.2088
48.2088
43.2111
43.2111
46.4818
46.4818
44.8166
44.8166
44.8166
44.8166
53.7845
53.7845
43.2111
43.2111
44.8166
44.8166
57.8555
57.8555
41.6631
41.6631
44.8166
44.8166
46.4818
46.4818
51.8578
51.8578
43.2111
43.2111
44.8166
44.8166
48.2088
48.2088
41.6631
41.6631
44.8166
44.8166
40.1706
40.1706
46.4818
46.4818
41.6631
41.6631
43.2111
43.2111
44.8166
44.8166
41.6631
41.6631
41.6631
41.6631
44.8166
44.8166
40.1706
40.1706
38.7315
38.7315
41.6631
41.6631
44.8166
44.8166
38.7315
38.7315
40.1706
40.1706
44.8166
44.8166
43.2111
43.2111
37.344
37.344
46.4818
46.4818
36.0062
36.0062
46.4818
46.4818
46.4818
46.4818
43.2111
43.2111
46.4818
46.4818
36.0062
36.0062
44.8166
44.8166
38.7315
38.7315
43.2111
43.2111
44.8166
44.8166
38.7315
38.7315
37.344
37.344
37.344
37.344
36.0062
36.0062
33.4726
33.4726
46.4818
46.4818
40.1706
40.1706
38.7315
38.7315
37.344
37.344
32.2735
32.2735
40.1706
40.1706
38.7315
38.7315
48.2088
48.2088
38.7315
38.7315
38.7315
38.7315
37.344
37.344
43.2111
43.2111
37.344
37.344
36.0062
36.0062
33.4726
33.4726
34.7163
34.7163
33.4726
33.4726
33.4726
33.4726
37.344
37.344
32.2735
32.2735
37.344
37.344
48.2088
48.2088
36.0062
36.0062
48.2088
48.2088
31.1173
31.1173
34.7163
34.7163
36.0062
36.0062
86.4222
86.4222
86.4222
86.4222
86.4222
86.4222
80.3411
80.3411
77.463
77.463
83.3262
83.3262
83.3262
83.3262
77.463
77.463
77.463
77.463
74.6879
74.6879
74.6879
74.6879
74.6879
74.6879
72.0123
72.0123
77.463
77.463
74.6879
74.6879
66.9452
66.9452
74.6879
74.6879
72.0123
72.0123
77.463
77.463
66.9452
66.9452
74.6879
74.6879
74.6879
74.6879
74.6879
74.6879
66.9452
66.9452
72.0123
72.0123
64.547
64.547
64.547
64.547
72.0123
72.0123
64.547
64.547
69.4326
69.4326
51.8578
51.8578
64.547
64.547
66.9452
66.9452
64.547
64.547
64.547
64.547
62.2346
62.2346
64.547
64.547
64.547
64.547
66.9452
66.9452
64.547
64.547
55.7829
55.7829
53.7845
53.7845
57.8555
57.8555
55.7829
55.7829
62.2346
62.2346
62.2346
62.2346
51.8578
51.8578
64.547
64.547
66.9452
66.9452
64.547
64.547
53.7845
53.7845
60.0051
60.0051
62.2346
62.2346
60.0051
60.0051
66.9452
66.9452
62.2346
62.2346
55.7829
55.7829
62.2346
62.2346
57.8555
57.8555
55.7829
55.7829
57.8555
57.8555
57.8555
57.8555
64.547
64.547
57.8555
57.8555
66.9452
66.9452
55.7829
55.7829
57.8555
57.8555
55.7829
55.7829
64.547
64.547
60.0051
60.0051
53.7845
53.7845
53.7845
53.7845
57.8555
57.8555
53.7845
53.7845
53.7845
53.7845
60.0051
60.0051
53.7845
53.7845
50
50
51.8578
51.8578
51.8578
51.8578
51.8578
51.8578
50
50
53.7845
53.7845
62.2346
62.2346
53.7845
53.7845
60.0051
60.0051
53.7845
53.7845
55.7829
55.7829
53.7845
53.7845
53.7845
53.7845
51.8578
51.8578
53.7845
53.7845
51.8578
51.8578
53.7845
53.7845
55.7829
55.7829
55.7829
55.7829
51.8578
51.8578
57.8555
57.8555
48.2088
48.2088
48.2088
48.2088
53.7845
53.7845
55.7829
55.7829
60.0051
60.0051
50
50
51.8578
51.8578
60.0051
60.0051
48.2088
48.2088
53.7845
53.7845
53.7845
53.7845
51.8578
51.8578
46.4818
46.4818
51.8578
51.8578
44.8166
44.8166
53.7845
53.7845
51.8578
51.8578
50
50
50
50
46.4818
46.4818
50
50
44.8166
44.8166
51.8578
51.8578
50
50
46.4818
46.4818
50
50
51.8578
51.8578
53.7845
53.7845
50
50
50
50
44.8166
44.8166
48.2088
48.2088
43.2111
43.2111
50
50
46.4818
46.4818
43.2111
43.2111
44.8166
44.8166
44.8166
44.8166
50
50
53.7845
53.7845
43.2111
43.2111
48.2088
48.2088
50
50
50
50
51.8578
51.8578
43.2111
43.2111
53.7845
53.7845
48.2088
48.2088
48.2088
48.2088
41.6631
41.6631
44.8166
44.8166
50
50
43.2111
43.2111
48.2088
48.2088
44.8166
44.8166
44.8166
44.8166
50
50
40.1706
40.1706
48.2088
48.2088
44.8166
44.8166
55.7829
55.7829
46.4818
46.4818
51.8578
51.8578
43.2111
43.2111
43.2111
43.2111
50
50
41.6631
41.6631
51.8578
51.8578
43.2111
43.2111
44.8166
44.8166
44.8166
44.8166
41.6631
41.6631
50
50
43.2111
43.2111
40.1706
40.1706
38.7315
38.7315
40.1706
40.1706
46.4818
46.4818
38.7315
38.7315
43.2111
43.2111
43.2111
43.2111
37.344
37.344
41.6631
41.6631
40.1706
40.1706
38.7315
38.7315
46.4818
46.4818
40.1706
40.1706
40.1706
40.1706
37.344
37.344
36.0062
36.0062
41.6631
41.6631
37.344
37.344
100
96.4176
96.4176
89.6332
89.6332
86.4222
86.4222
83.3262
83.3262
92.9635
92.9635
80.3411
80.3411
86.4222
86.4222
77.463
77.463
74.6879
74.6879
83.3262
83.3262
74.6879
74.6879
72.0123
72.0123
80.3411
80.3411
72.0123
72.0123
77.463
77.463
69.4326
69.4326
69.4326
69.4326
74.6879
74.6879
64.547
64.547
66.9452
66.9452
72.0123
72.0123
66.9452
66.9452
62.2346
62.2346
64.547
64.547
62.2346
62.2346
69.4326
69.4326
66.9452
66.9452
64.547
64.547
60.0051
60.0051
62.2346
62.2346
69.4326
69.4326
57.8555
57.8555
60.0051
60.0051
74.6879
74.6879
55.7829
55.7829
72.0123
72.0123
66.9452
66.9452
55.7829
55.7829
53.7845
53.7845
69.4326
69.4326
60.0051
60.0051
57.8555
57.8555
64.547
64.547
51.8578
51.8578
53.7845
53.7845
51.8578
51.8578
51.8578
51.8578
53.7845
53.7845
62.2346
62.2346
57.8555
57.8555
55.7829
55.7829
53.7845
53.7845
50
50
60.0051
60.0051
51.8578
51.8578
50
50
48.2088
48.2088
50
50
48.2088
48.2088
53.7845
53.7845
51.8578
51.8578
48.2088
48.2088
51.8578
51.8578
46.4818
46.4818
46.4818
46.4818
51.8578
51.8578
46.4818
46.4818
50
50
50
50
44.8166
44.8166
46.4818
46.4818
44.8166
44.8166
43.2111
43.2111
48.2088
48.2088
41.6631
41.6631
43.2111
43.2111
41.6631
41.6631
40.1706
40.1706
46.4818
46.4818
40.1706
40.1706
44.8166
44.8166
44.8166
44.8166
41.6631
41.6631
40.1706
40.1706
38.7315
38.7315
38.7315
38.7315
44.8166
44.8166
40.1706
40.1706
43.2111
43.2111
40.1706
40.1706
38.7315
38.7315
37.344
37.344
36.0062
36.0062
38.7315
38.7315
37.344
37.344
41.6631
41.6631
43.2111
43.2111
37.344
37.344
41.6631
41.6631
34.7163
34.7163
37.344
37.344
34.7163
34.7163
33.4726
33.4726
32.2735
32.2735
32.2735
32.2735
40.1706
40.1706
36.0062
36.0062
31.1173
31.1173
31.1173
31.1173
30.0026
30.0026
28.9278
28.9278
38.7315
38.7315
30.0026
30.0026
28.9278
28.9278
27.8914
27.8914
27.8914
27.8914
26.8923
26.8923
27.8914
27.8914
26.8923
26.8923
37.344
37.344
36.0062
36.0062
25.9289
25.9289
26.8923
26.8923
25.9289
25.9289
34.7163
34.7163
25
25
24.1044
24.1044
25.9289
25.9289
33.4726
33.4726
66.9452
66.9452
92.9635
92.9635
89.6332
89.6332
83.3262
83.3262
83.3262
83.3262
80.3411
80.3411
77.463
77.463
77.463
77.463
74.6879
74.6879
72.0123
72.0123
