# vtk DataFile Version 3.0
Tree
ASCII
DATASET POLYDATA
POINTS 400 float
-0.004 0.02 0.0265
0.0065 0.01 0.026302
0.00461 0.0117065 0.0248517
0.00725 0.009063 0.02275
0.00651684 0.00919274 0.0236607
0.008403 0.00575 0.023
0.002251 0.0141968 0.0248625
0.004365 0.0135 0.02175
0.00783138 0.0069871 0.0226343
0.009056 0.00525 0.02075
0.00804432 0.00594859 0.0228192
0.00825 0.001955 0.02325
0.00673679 0.00915382 0.0233875
0.00752 0.0095 0.0185
-0.00062446 0.0168663 0.0256158
0.00025 0.016072 0.02175
0.00362524 0.0136039 0.0222794
0.004366 0.0125 0.01775
0.00836127 0.00367452 0.0223732
0.009 0.00125 0.020857
0.00840375 0.00641489 0.0213017
0.009558 0.00625 0.01675
-0.000615931 0.0166789 0.0240308
-0.00225 0.01706 0.02175
-0.000156625 0.0161694 0.0223182
0.0005 0.014557 0.0175
0.00741777 0.00917922 0.019084
0.00805 0.00875 0.015
-0.00152637 0.0167536 0.0220323
-0.002 0.01651 0.0195
0.00080004 0.014637 0.0184818
0.002322 0.013 0.0155
0.00431722 0.0124045 0.0184418
0.00525 0.010582 0.01375
0.00862035 0.00176754 0.0215132
0.00825 -0.0025 0.020887
0.00854263 0.00233964 0.0217712
0.010057 0.001 0.01675
0.0093124 0.00632516 0.0172966
0.01 0.00633 0.0135
0.00830149 -0.000297149 0.0218673
0.007057 -0.00475 0.02525
-0.00174346 0.0168455 0.0219476
-0.0055 0.01706 0.0205
-0.00204423 0.0164539 0.0199912
-0.0035 0.0155 0.016678
0.00102896 0.0140008 0.0169951
-0.0005 0.01325 0.013613
0.00172247 0.0133704 0.0158067
0.00275 0.012 0.012244
-0.00371512 0.01661 0.0217391
-0.008582 0.01475 0.02325
0.00838266 -0.00137655 0.0210527
0.00901 -0.0025 0.0185
0.00991895 0.00167151 0.0173251
0.010862 0.00225 0.0145
0.00940884 0.00679567 0.0145286
0.008871 0.008 0.01175
0.00523151 0.011023 0.0143414
0.00625 0.010074 0.0105
-0.00705581 0.014514 0.0225056
-0.010084 0.01125 0.02275
0.00831102 -0.00198321 0.0209632
0.00757 -0.0055 0.02025
-0.00465692 0.0165785 0.0208111
-0.007 0.015517 0.0175
0.00998245 0.00136262 0.0170605
0.01025 -0.001 0.014349
0.00980102 0.00624354 0.0138269
0.01107 0.00375 0.0115
0.00520112 0.0108588 0.0122167
0.00425 0.01125 0.010046
0.00746883 -0.00356722 0.0232669
0.00675 -0.006887 0.023
-0.00615876 0.0152914 0.0219566
-0.009 0.014827 0.0205
0.0081374 -0.00335509 0.0202937
0.0085 -0.005 0.017556
-0.00359415 0.0155437 0.0171984
-0.0055 0.014566 0.01475
-0.00406055 0.0150015 0.0158096
-0.00325 0.013556 0.012
0.000251585 0.0133571 0.0140242
0 0.01256 0.01025
0.00945928 0.00735192 0.0123137
0.01005 0.00775 0.009
-0.00958146 0.0115945 0.0227194
-0.01175 0.00875 0.02292
-0.0105955 0.0100607 0.0224789
-0.011403 0.00775 0.0205
-0.00862171 0.0127039 0.0226382
-0.010689 0.0115 0.019
-0.00669277 0.0153911 0.0186144
-0.00925 0.013551 0.01675
0.00984158 -0.000719664 0.0156228
0.00925 -0.004049 0.01425
0.0104832 0.00172125 0.0153298
0.011053 0.00025 0.01175
0.0104245 0.00523171 0.0123717
0.011082 0.00525 0.00925
0.00607898 0.0104011 0.010927
0.00825 0.01 0.008277
0.00689404 -0.00586031 0.0234298
0.005571 -0.00975 0.02525
-0.0110747 0.00847345 0.0216886
-0.012 0.0045 0.021781
0.00774174 -0.00496269 0.0201288
0.007054 -0.00825 0.01925
0.00753229 -0.00617049 0.0194535
0.007572 -0.00725 0.017
-0.00523104 0.0146132 0.0151356
-0.008 0.013566 0.01425
-0.00414822 0.0144088 0.0141776
-0.00625 0.013556 0.0115
0.010801 0.00425675 0.0115946
0.0115 0.001972 0.009
0.00438787 0.0112881 0.0104843
0.002857 0.0125 0.00775
0.00673029 0.0102808 0.010132
0.00625 0.011545 0.007
0.00649713 -0.00702722 0.0239758
0.006 -0.010333 0.022
-0.0115631 0.00653598 0.0213795
-0.01225 0.004568 0.01925
-0.0103945 0.0111853 0.0197529
-0.012 0.009 0.017531
-0.00892169 0.0136571 0.0169966
-0.011 0.011827 0.0155
0.00967396 -0.00230532 0.014349
0.00975 -0.003529 0.01225
0.00981622 -0.0026966 0.0130055
0.0105 -0.002041 0.01
-0.00359396 0.0138799 0.0124464
-0.002948 0.01325 0.0085
0.000170634 0.013018 0.0108497
0.00025 0.013057 0.007
0.0100797 0.00731077 0.00955382
0.011 0.00675 0.006244
-0.0119522 0.00508335 0.0216656
-0.01325 0.00125 0.022419
0.00708154 -0.00783717 0.0193562
0.006055 -0.0105 0.0195
-0.0118897 0.00596459 0.0202264
-0.012571 0.00625 0.01725
0.00742508 -0.00716819 0.0174214
0.007104 -0.0085 0.015
0.00932622 -0.00350972 0.0141255
0.00825 -0.006549 0.013
-0.00702635 0.0138321 0.0142458
-0.00955 0.01225 0.0115
-0.00526929 0.0138974 0.0118711
-0.00575 0.013557 0.009
0.0110404 0.00335652 0.0096154
0.011057 0.003 0.00675
0.0103929 0.00735099 0.00782785
0.010016 0.009 0.0055
0.00673652 0.0109307 0.00806675
0.00825 0.01104 0.005
-0.0128878 0.00154 0.0220509
-0.013069 -0.001 0.02175
-0.0123077 0.00373688 0.021812
-0.01275 0.00175 0.019063
0.00677358 -0.00863602 0.0193994
0.006055 -0.0105 0.01675
-0.0117663 0.00950916 0.0175333
-0.013 0.008321 0.015
-0.00877283 0.0126923 0.0128907
-0.01175 0.01055 0.013
0.00968407 -0.00328961 0.0124507
0.009 -0.005327 0.0105
0.00990774 -0.00276421 0.0109526
0.009557 -0.0035 0.00825
0.0110889 0.00240359 0.00904808
0.0105 -0.00078 0.00675
-0.00281927 0.0135372 0.00892284
-0.00175 0.013556 0.0055
0.0036753 0.0120549 0.00850576
0.004 0.013043 0.00475
0.00351038 0.0126821 0.0063045
0.0015 0.0135 0.004318
0.00571566 -0.00931807 0.0246384
0.0045 -0.012875 0.02525
0.00579901 -0.00982745 0.0227203
0.004572 -0.01325 0.02175
-0.0127559 0.00184475 0.020145
-0.013403 -0.00075 0.019
-0.0122484 0.00509574 0.019433
-0.013551 0.00325 0.017
-0.0130187 0.00425367 0.017775
-0.01375 0.00475 0.015063
0.00710613 -0.00826221 0.0153738
0.0065 -0.00937 0.013
0.00834603 -0.00598271 0.0128001
0.007363 -0.008 0.011
-0.00585138 0.0136619 0.0106939
-0.0085 0.012872 0.009
-0.00593359 0.0136018 0.00944839
-0.00675 0.013555 0.007
0.0108073 0.00109283 0.00767702
0.01055 0.001 0.005
0.0109079 0.00338113 0.00728539
0.010553 0.00375 0.00375
0.0105113 0.00706959 0.00675931
0.010068 0.0065 0.00325
0.00723313 0.0111912 0.00628404
0.0065 0.012518 0.003
-0.0132427 -0.000480798 0.0220005
-0.014 -0.0035 0.022129
0.00621629 -0.010024 0.0194217
0.005 -0.012825 0.01925
-0.0129501 0.00106633 0.0198015
-0.01375 0.0005 0.017049
0.00598955 -0.0102009 0.0171078
0.005 -0.011562 0.015
-0.0128013 0.00828638 0.0155933
-0.014053 0.0065 0.0135
-0.0131768 0.00775047 0.0149653
-0.01352 0.0085 0.012
-0.00942664 0.0122887 0.0120343
-0.0115 0.010915 0.01025
0.00899363 -0.00492812 0.0107203
0.008 -0.006813 0.0085
0.00944328 -0.00355799 0.00862484
0.00875 -0.004548 0.0065
-0.00273087 0.0135451 0.00744948
-0.00425 0.013557 0.005
-0.00187082 0.013551 0.00587575
-0.0005 0.013557 0.0035
0.0101588 0.00705992 0.004654
0.009355 0.00875 0.0025
0.00719211 0.0114876 0.00479759
0.008354 0.01075 0.002
0.00448749 -0.0124718 0.0250543
0.003066 -0.0155 0.02525
0.00458452 -0.0129186 0.0217029
0.003565 -0.015 0.02075
-0.0132992 -0.00038898 0.0193446
-0.014053 -0.00375 0.019
0.005348 -0.0117225 0.0190088
0.00375 -0.013553 0.017
-0.0133348 0.00363216 0.0171861
-0.01425 0.00175 0.015063
-0.0139018 0.00273433 0.0157221
-0.014574 0.003 0.01325
0.00648708 -0.00915685 0.0138807
0.004546 -0.01125 0.012
0.00590475 -0.0097848 0.0133165
0.00575 -0.00955 0.01025
0.00791756 -0.0066122 0.00914049
0.00657 -0.00825 0.00825
-0.00807055 0.0129517 0.00918757
-0.01075 0.012028 0.00725
-0.00691344 0.0134337 0.00755935
-0.0085 0.013055 0.0055
0.0104817 -2.09704e-06 0.00687278
0.00925 -0.002046 0.00425
0.0103782 0.000827132 0.00551081
0.009569 0.00025 0.003
0.00246946 0.0131581 0.00484767
0.00225 0.01357 0.002
0.00637056 0.0123108 0.00329903
0.005049 0.01325 0.0015
0.0100348 0.00678556 0.0036453
0.0095 0.0065 0.000959
0.00409148 -0.013947 0.0215922
0.003029 -0.01625 0.02275
-0.0136525 -0.00289078 0.0217512
-0.014057 -0.0065 0.021
0.0044429 -0.012857 0.0182345
0.002878 -0.01525 0.0185
-0.0136788 -0.001662 0.0188883
-0.014557 -0.003 0.01675
-0.01371 0.00030653 0.0175897
-0.01475 -0.001 0.015048
0.00484498 -0.011418 0.0157317
0.00275 -0.013381 0.014
0.00472662 -0.0110139 0.012589
0.00325 -0.0125 0.012223
-0.0138102 0.0068627 0.0138151
-0.01501 0.00525 0.01125
-0.0135871 0.00793391 0.0125561
-0.01425 0.007549 0.00975
-0.0111572 0.0111228 0.0104867
-0.01305 0.00975 0.0085
0.00794229 -0.00667244 0.00894834
0.0075 -0.006846 0.0065
0.00883219 -0.0043822 0.00682871
0.008 -0.005273 0.00475
-0.00425388 0.0135532 0.00536383
-0.006 0.013557 0.0035
-0.00345844 0.0135502 0.00585972
-0.00325 0.013557 0.0025
0.0104164 0.00325245 0.00453416
0.009558 0.0025 0.0015
-0.00277338 0.013694 0.00342389
-0.00125 0.014056 0.001
0.00963714 0.00607707 0.0020499
0.009073 0.0045 0.00025
0.0094402 0.00814397 0.0026616
0.008511 0.009 0
0.00767295 0.0111372 0.00285296
0.007058 0.01125 -0.0005
0.0035818 -0.0149643 0.0217869
0.0025 -0.016772 0.02075
-0.0140028 -0.00476758 0.0207306
-0.014557 -0.0065 0.01875
0.00355318 -0.0140174 0.0180846
0.002 -0.015163 0.0165
0.00300039 -0.0130841 0.0146942
0.00125 -0.014564 0.0145
-0.0141594 0.00212076 0.015163
-0.01507 0.00025 0.013
-0.0146522 0.00141409 0.0138932
-0.015403 0.00175 0.0115
0.00560654 -0.00986096 0.0114986
0.00425 -0.01105 0.00975
0.00562336 -0.00977159 0.0106068
0.005368 -0.01 0.00825
-0.0121241 0.0104524 0.0091093
-0.01225 0.010551 0.00675
0.00732692 -0.00710698 0.00712934
0.00625 -0.008026 0.00525
-0.00828163 0.0130873 0.00584603
-0.01 0.012555 0.004
0.00843001 -0.00460547 0.00553014
0.00804 -0.00375 0.00275
0.00967072 -3.29768e-05 0.00378519
0.008545 -0.00175 0.0015
0.009333 -0.000548084 0.00309963
0.00875 0.0005 0.000611
0.00523434 0.0130843 0.00172961
0.003823 0.014 -0.00025
-0.00122935 0.0139123 0.00154956
0.001 0.01406 -0.0005
0.00588601 0.0126573 0.00214787
0.00575 0.012852 -0.001
0.00319612 -0.0149582 0.0252417
0.0015 -0.017891 0.0255
-0.0140973 -0.00586287 0.021086
-0.014573 -0.00925 0.02275
-0.0140852 -0.00605401 0.0210602
-0.014559 -0.0085 0.02
0.00301344 -0.0147678 0.0182271
0.001 -0.017 0.018301
-0.014269 -0.00298776 0.0177764
-0.015034 -0.00525 0.01675
-0.0144756 -0.00313278 0.0171106
-0.015189 -0.004 0.015
-0.014639 -0.00093191 0.0154279
-0.015542 -0.00225 0.0135
0.00214273 -0.0136234 0.0142996
0.00025 -0.014082 0.01225
-0.0150415 0.00129868 0.0126155
-0.015556 -0.00025 0.01075
0.00394621 -0.0116753 0.0120927
0.002 -0.012872 0.00975
-0.0145973 0.00541964 0.011646
-0.01525 0.003552 0.009
-0.0147931 0.00485935 0.0108522
-0.015 0.006 0.008057
-0.0126628 0.00991944 0.00864949
-0.014186 0.008 0.007
0.00658923 -0.00779866 0.00630674
0.00475 -0.00975 0.005952
-0.00966518 0.0125271 0.00502609
-0.01175 0.011543 0.0045
0.00686955 -0.00753582 0.00661933
0.0065 -0.006772 0.00325
-0.00834714 0.0130776 0.00574222
-0.008 0.013362 0.00225
-0.00509186 0.0135552 0.00376464
-0.00575 0.013557 0.00125
-0.00231017 0.0137595 0.00286159
-0.00325 0.013582 0.00025
0.00960644 0.00274078 0.00189805
0.00875 0.0025 -0.000546
0.00944889 0.00621547 0.00129337
0.008557 0.00625 -0.00125
0.00854823 0.00865607 0.000361712
0.007582 0.00875 -0.00175
0.000776608 0.014015 -0.000264142
0.00275 0.014068 -0.002
0.00183276 -0.017277 0.0249973
0.00075 -0.01905 0.024
0.00259927 -0.0163559 0.0214577
0.001 -0.018385 0.0215
-0.0145037 -0.00636562 0.0193258
-0.015 -0.008 0.018543
0.00154645 -0.015945 0.0178312
-0.0005 -0.017059 0.01675
-0.0148742 -0.0047651 0.0167406
-0.015556 -0.00675 0.01525
0.00142671 -0.0142124 0.0143467
-0.00125 -0.016017 0.01425
-0.0149493 -0.00379373 0.0153831
-0.015556 -0.00475 0.01275
-0.0151847 -0.00193276 0.0136412
-0.015556 -0.003 0.01125
-0.0152525 0.000873723 0.0116757
-0.015556 0.00125 0.0095
LINES 399 1197
2 2 1
2 6 2
2 12 3
2 2 4
2 10 5
2 14 6
2 16 7
2 4 8
2 20 9
2 8 10
2 18 11
2 4 12
2 26 13
2 0 14
2 24 15
2 6 16
2 32 17
2 10 18
2 34 19
2 8 20
2 38 21
2 14 22
2 42 23
2 22 24
2 30 25
2 12 26
2 26 27
2 22 28
2 44 29
2 24 30
2 48 31
2 16 32
2 58 33
2 36 34
2 62 35
2 18 36
2 66 37
2 20 38
2 68 39
2 34 40
2 72 41
2 28 42
2 64 43
2 28 44
2 78 45
2 30 46
2 82 47
2 46 48
2 48 49
2 42 50
2 60 51
2 40 52
2 52 53
2 36 54
2 96 55
2 38 56
2 84 57
2 32 58
2 100 59
2 74 60
2 86 61
2 52 62
2 106 63
2 50 64
2 92 65
2 54 66
2 94 67
2 56 68
2 114 69
2 58 70
2 116 71
2 40 72
2 102 73
2 50 74
2 74 75
2 62 76
2 76 77
2 44 78
2 110 79
2 78 80
2 132 81
2 46 82
2 134 83
2 56 84
2 136 85
2 90 86
2 88 87
2 86 88
2 104 89
2 60 90
2 124 91
2 64 92
2 126 93
2 66 94
2 146 95
2 54 96
2 96 97
2 68 98
2 98 99
2 70 100
2 118 101
2 72 102
2 180 103
2 88 104
2 138 105
2 76 106
2 140 107
2 106 108
2 144 109
2 80 110
2 148 111
2 80 112
2 150 113
2 98 114
2 172 115
2 70 116
2 176 117
2 100 118
2 156 119
2 102 120
2 182 121
2 104 122
2 186 123
2 90 124
2 164 125
2 92 126
2 126 127
2 94 128
2 168 129
2 128 130
2 170 131
2 112 132
2 174 133
2 82 134
2 134 135
2 84 136
2 202 137
2 122 138
2 158 139
2 108 140
2 208 141
2 122 142
2 142 143
2 108 144
2 190 145
2 128 146
2 192 147
2 110 148
2 218 149
2 112 150
2 196 151
2 114 152
2 200 153
2 136 154
2 154 155
2 118 156
2 204 157
2 160 158
2 206 159
2 138 160
2 184 161
2 140 162
2 212 163
2 124 164
2 214 165
2 148 166
2 166 167
2 130 168
2 220 169
2 130 170
2 222 171
2 152 172
2 254 173
2 132 174
2 226 175
2 116 176
2 178 177
2 176 178
2 258 179
2 120 180
2 232 181
2 120 182
2 234 183
2 160 184
2 236 185
2 142 186
2 240 187
2 186 188
2 188 189
2 144 190
2 244 191
2 146 192
2 192 193
2 150 194
2 250 195
2 194 196
2 252 197
2 172 198
2 256 199
2 152 200
2 292 201
2 154 202
2 262 203
2 156 204
2 260 205
2 158 206
2 266 207
2 162 208
2 238 209
2 184 210
2 272 211
2 162 212
2 274 213
2 164 214
2 278 215
2 214 216
2 280 217
2 166 218
2 282 219
2 168 220
2 284 221
2 170 222
2 286 223
2 174 224
2 288 225
2 224 226
2 226 227
2 202 228
2 298 229
2 204 230
2 300 231
2 180 232
2 336 233
2 182 234
2 264 235
2 210 236
2 270 237
2 208 238
2 268 239
2 188 240
2 310 241
2 240 242
2 242 243
2 190 244
2 276 245
2 244 246
2 316 247
2 220 248
2 248 249
2 194 250
2 250 251
2 196 252
2 368 253
2 198 254
2 254 255
2 198 256
2 326 257
2 178 258
2 258 259
2 230 260
2 330 261
2 228 262
2 376 263
2 234 264
2 302 265
2 206 266
2 340 267
2 238 268
2 342 269
2 236 270
2 346 271
2 210 272
2 348 273
2 212 274
2 308 275
2 246 276
2 354 277
2 216 278
2 356 279
2 216 280
2 280 281
2 218 282
2 360 283
2 248 284
2 320 285
2 222 286
2 324 287
2 290 288
2 370 289
2 224 290
2 294 291
2 200 292
2 374 293
2 290 294
2 332 295
2 262 296
2 296 297
2 228 298
2 378 299
2 230 300
2 300 301
2 264 302
2 384 303
2 266 304
2 386 305
2 268 306
2 306 307
2 274 308
2 392 309
2 242 310
2 312 311
2 310 312
2 352 313
2 246 314
2 314 315
2 314 316
2 316 317
2 282 318
2 318 319
2 284 320
2 362 321
2 252 322
2 364 323
2 286 324
2 324 325
2 256 326
2 328 327
2 326 328
2 328 329
2 334 330
2 330 331
2 372 332
2 380 333
2 260 334
2 334 335
2 232 336
2 382 337
2 304 338
2 338 339
2 338 340
2 340 341
2 306 342
2 388 343
2 270 344
2 390 345
2 344 346
2 394 347
2 272 348
2 396 349
2 308 350
2 350 351
2 312 352
2 398 353
2 276 354
2 354 355
2 278 356
2 358 357
2 356 358
2 358 359
2 318 360
2 360 361
2 366 362
2 362 363
2 322 364
2 364 365
2 320 366
2 366 367
2 322 368
2 368 369
2 288 370
2 370 371
2 294 372
2 372 373
2 292 374
2 374 375
2 296 376
2 376 377
2 298 378
2 378 379
2 332 380
2 380 381
2 336 382
2 382 383
2 302 384
2 384 385
2 304 386
2 386 387
2 342 388
2 388 389
2 344 390
2 390 391
2 350 392
2 392 393
2 346 394
2 394 395
2 348 396
2 396 397
2 352 398
2 398 399
CELL_DATA 399
SCALARS radius float
LOOKUP_TABLE default
0.139272
0.858094
0.104995
0.856869
0.0910195
0.905571
0.105561
0.851834
0.122907
0.757523
0.133499
0.222574
0.126184
1.07824
0.0985152
0.480282
0.103708
0.757085
0.112761
0.568166
0.103359
0.799456
0.0919759
0.321072
0.119794
0.214496
0.198822
0.781807
0.0900628
0.31795
0.130108
0.478576
0.112033
0.663738
0.102575
0.755698
0.102409
0.566242
0.0976914
0.662651
0.153428
0.672982
0.112379
0.55727
0.0950328
0.312177
0.13654
0.213448
0.195936
0.672409
0.12637
0.574525
0.155398
0.518204
0.141095
0.565092
0.127969
0.476947
0.112423
0.657885
0.101251
0.57071
0.109631
0.252728
0.133023
0.505065
0.138415
0.463771
0.114302
0.474877
0.110188
0.466217
0.132869
0.660291
0.146369
0.569603
0.164534
0.556485
0.0972342
0.55556
0.108046
0.274565
0.161216
0.432141
0.123492
0.609257
0.135415
0.608323
0.130549
0.656327
0.117005
0.245093
0.131042
0.503658
0.123386
0.217706
0.195826
0.462321
0.170525
0.420061
0.165397
0.460611
0.133013
0.606078
0.110049
0.56499
0.107337
0.563611
0.111374
0.350575
0.124065
0.504473
0.126955
0.454455
0.124539
0.320651
0.152247
0.41736
0.150148
0.456895
0.140923
0.604052
0.11265
0.383881
0.112954
0.231266
0.216293
0.500149
0.105351
0.474443
0.158424
0.42484
0.110636
0.262814
0.240801
0.428367
0.136356
0.538011
0.11865
0.47977
0.119216
0.401403
0.167033
0.409366
0.118287
0.263602
0.157497
0.348063
0.119937
0.372546
0.112239
0.452032
0.135704
0.424919
0.183146
0.408515
0.167262
0.396313
0.126056
0.536472
0.138043
0.477972
0.121859
0.380223
0.124976
0.342728
0.184325
0.403263
0.124133
0.345427
0.131762
0.387598
0.157934
0.422498
0.12672
0.316254
0.184943
0.304026
0.193936
0.351242
0.132136
0.37336
0.126055
0.451683
0.122682
0.39152
0.118254
0.388387
0.179283
0.4066
0.150344
0.254264
0.232273
0.367566
0.13046
0.335183
0.128601
0.383264
0.144274
0.32439
0.169091
0.41326
0.137547
0.401639
0.135283
0.392736
0.146353
0.383029
0.156847
0.447343
0.133566
0.375633
0.148502
0.376871
0.132634
0.372233
0.164443
0.323946
0.129704
0.400852
0.139414
0.333941
0.148738
0.419954
0.117675
0.220659
0.205742
0.408252
0.158527
0.391727
0.184874
0.344765
0.161133
0.366544
0.192309
0.384554
0.184138
0.37914
0.179711
0.375211
0.125556
0.371254
0.192714
0.403235
0.162255
0.396145
0.162836
0.396844
0.204979
0.228961
0.21387
0.330934
0.12196
0.252578
0.230044
0.342521
0.179506
0.279249
0.243748
0.340813
0.157473
0.331354
0.164083
0.361506
0.214248
0.388359
0.153071
0.369972
0.158856
0.380346
0.138227
0.319622
0.142898
0.371308
0.170231
0.313922
0.200965
0.328286
0.157501
0.253007
0.227335
0.31837
0.157184
0.377706
0.170152
0.326958
0.217693
0.26254
0.173842
0.398578
0.157523
0.316273
0.179667
0.356277
0.154333
0.323258
0.230323
0.316358
0.188032
0.273791
0.242185
0.34237
0.208342
0.381303
0.185763
0.355261
0.216182
0.363215
0.169918
0.353069
0.190119
0.347695
0.197936
0.314917
0.22609
0.26996
0.24856
0.311026
0.217112
0.371266
0.2109
0.32433
0.193918
0.316358
0.277396
0.333767
0.242319
0.315475
0.257978
0.279842
0.262121
0.318704
0.170754
0.333554
0.247691
0.338169
0.223395
0.323382
0.254446
0.258853
0.239616
0.326277
0.225251
0.365379
0.169891
0.301395
0.173664
0.31165
0.182535
0.350297
0.249415
0.327609
0.226632
0.298752
0.264707
0.320905
0.23577
0.307724
0.252161
0.270778
0.251827
0.301468
0.26216
0.27333
0.235904
0.358949
0.266137
0.239256
0.228188
0.254411
0.223824
0.345702
0.207572
0.299263
0.275901
0.278326
0.257847
0.30249
0.276023
0.306152
0.28731
0.325507
0.285783
0.311746
0.276999
0.278584
0.247768
0.313208
0.268223
0.277635
0.254566
0.301726
0.282573
0.291374
0.269159
0.301295
0.277067
0.301499
0.250752
