# vtk DataFile Version 3.0
Tree
ASCII
DATASET POLYDATA
POINTS 600 float
-0.004 0.02 0.0265
0.0065 0.01 0.026302
0.00461 0.0117065 0.0248517
0.00725 0.009063 0.02275
0.00651684 0.00919274 0.0236607
0.008403 0.00575 0.023
0.002251 0.0141968 0.0248625
0.004365 0.0135 0.02175
0.00783138 0.0069871 0.0226343
0.009056 0.00525 0.02075
0.00804432 0.00594859 0.0228192
0.00825 0.001955 0.02325
0.00673679 0.00915382 0.0233875
0.00752 0.0095 0.0185
-0.00062446 0.0168663 0.0256158
0.00025 0.016072 0.02175
0.00362524 0.0136039 0.0222794
0.004366 0.0125 0.01775
0.00836127 0.00367452 0.0223732
0.009 0.00125 0.020857
0.00840375 0.00641489 0.0213017
0.009558 0.00625 0.01675
-0.000615931 0.0166789 0.0240308
-0.00225 0.01706 0.02175
-0.000156625 0.0161694 0.0223182
0.0005 0.014557 0.0175
0.00741777 0.00917922 0.019084
0.00805 0.00875 0.015
-0.00152637 0.0167536 0.0220323
-0.002 0.01651 0.0195
0.00080004 0.014637 0.0184818
0.002322 0.013 0.0155
0.00431722 0.0124045 0.0184418
0.00525 0.010582 0.01375
0.00862035 0.00176754 0.0215132
0.00825 -0.0025 0.020887
0.00854263 0.00233964 0.0217712
0.010057 0.001 0.01675
0.0093124 0.00632516 0.0172966
0.01 0.00633 0.0135
0.00830149 -0.000297149 0.0218673
0.007057 -0.00475 0.02525
-0.00174346 0.0168455 0.0219476
-0.0055 0.01706 0.0205
-0.00204423 0.0164539 0.0199912
-0.0035 0.0155 0.016678
0.00102896 0.0140008 0.0169951
-0.0005 0.01325 0.013613
0.00172247 0.0133704 0.0158067
0.00275 0.012 0.012244
-0.00371512 0.01661 0.0217391
-0.008582 0.01475 0.02325
0.00838266 -0.00137655 0.0210527
0.00901 -0.0025 0.0185
0.00991895 0.00167151 0.0173251
0.010862 0.00225 0.0145
0.00940884 0.00679567 0.0145286
0.008871 0.008 0.01175
0.00523151 0.011023 0.0143414
0.00625 0.010074 0.0105
-0.00705581 0.014514 0.0225056
-0.010084 0.01125 0.02275
0.00831102 -0.00198321 0.0209632
0.00757 -0.0055 0.02025
-0.00465692 0.0165785 0.0208111
-0.007 0.015517 0.0175
0.00998245 0.00136262 0.0170605
0.01025 -0.001 0.014349
0.00980102 0.00624354 0.0138269
0.01107 0.00375 0.0115
0.00520112 0.0108588 0.0122167
0.00425 0.01125 0.010046
0.00746883 -0.00356722 0.0232669
0.00675 -0.006887 0.023
-0.00615876 0.0152914 0.0219566
-0.009 0.014827 0.0205
0.0081374 -0.00335509 0.0202937
0.0085 -0.005 0.017556
-0.00359415 0.0155437 0.0171984
-0.0055 0.014566 0.01475
-0.00406055 0.0150015 0.0158096
-0.00325 0.013556 0.012
0.000251585 0.0133571 0.0140242
0 0.01256 0.01025
0.00945928 0.00735192 0.0123137
0.01005 0.00775 0.009
-0.00958146 0.0115945 0.0227194
-0.01175 0.00875 0.02292
-0.0105955 0.0100607 0.0224789
-0.011403 0.00775 0.0205
-0.00862171 0.0127039 0.0226382
-0.010689 0.0115 0.019
-0.00669277 0.0153911 0.0186144
-0.00925 0.013551 0.01675
0.00984158 -0.000719664 0.0156228
0.00925 -0.004049 0.01425
0.0104832 0.00172125 0.0153298
0.011053 0.00025 0.01175
0.0104245 0.00523171 0.0123717
0.011082 0.00525 0.00925
0.00607898 0.0104011 0.010927
0.00825 0.01 0.008277
0.00689404 -0.00586031 0.0234298
0.005571 -0.00975 0.02525
-0.0110747 0.00847345 0.0216886
-0.012 0.0045 0.021781
0.00774174 -0.00496269 0.0201288
0.007054 -0.00825 0.01925
0.00753229 -0.00617049 0.0194535
0.007572 -0.00725 0.017
-0.00523104 0.0146132 0.0151356
-0.008 0.013566 0.01425
-0.00414822 0.0144088 0.0141776
-0.00625 0.013556 0.0115
0.010801 0.00425675 0.0115946
0.0115 0.001972 0.009
0.00438787 0.0112881 0.0104843
0.002857 0.0125 0.00775
0.00673029 0.0102808 0.010132
0.00625 0.011545 0.007
0.00649713 -0.00702722 0.0239758
0.006 -0.010333 0.022
-0.0115631 0.00653598 0.0213795
-0.01225 0.004568 0.01925
-0.0103945 0.0111853 0.0197529
-0.012 0.009 0.017531
-0.00892169 0.0136571 0.0169966
-0.011 0.011827 0.0155
0.00967396 -0.00230532 0.014349
0.00975 -0.003529 0.01225
0.00981622 -0.0026966 0.0130055
0.0105 -0.002041 0.01
-0.00359396 0.0138799 0.0124464
-0.002948 0.01325 0.0085
0.000170634 0.013018 0.0108497
0.00025 0.013057 0.007
0.0100797 0.00731077 0.00955382
0.011 0.00675 0.006244
-0.0119522 0.00508335 0.0216656
-0.01325 0.00125 0.022419
0.00708154 -0.00783717 0.0193562
0.006055 -0.0105 0.0195
-0.0118897 0.00596459 0.0202264
-0.012571 0.00625 0.01725
0.00742508 -0.00716819 0.0174214
0.007104 -0.0085 0.015
0.00932622 -0.00350972 0.0141255
0.00825 -0.006549 0.013
-0.00702635 0.0138321 0.0142458
-0.00955 0.01225 0.0115
-0.00526929 0.0138974 0.0118711
-0.00575 0.013557 0.009
0.0110404 0.00335652 0.0096154
0.011057 0.003 0.00675
0.0103929 0.00735099 0.00782785
0.010016 0.009 0.0055
0.00673652 0.0109307 0.00806675
0.00825 0.01104 0.005
-0.0128878 0.00154 0.0220509
-0.013069 -0.001 0.02175
-0.0123077 0.00373688 0.021812
-0.01275 0.00175 0.019063
0.00677358 -0.00863602 0.0193994
0.006055 -0.0105 0.01675
-0.0117663 0.00950916 0.0175333
-0.013 0.008321 0.015
-0.00877283 0.0126923 0.0128907
-0.01175 0.01055 0.013
0.00968407 -0.00328961 0.0124507
0.009 -0.005327 0.0105
0.00990774 -0.00276421 0.0109526
0.009557 -0.0035 0.00825
0.0110889 0.00240359 0.00904808
0.0105 -0.00078 0.00675
-0.00281927 0.0135372 0.00892284
-0.00175 0.013556 0.0055
0.0036753 0.0120549 0.00850576
0.004 0.013043 0.00475
0.00351038 0.0126821 0.0063045
0.0015 0.0135 0.004318
0.00571566 -0.00931807 0.0246384
0.0045 -0.012875 0.02525
0.00579901 -0.00982745 0.0227203
0.004572 -0.01325 0.02175
-0.0127559 0.00184475 0.020145
-0.013403 -0.00075 0.019
-0.0122484 0.00509574 0.019433
-0.013551 0.00325 0.017
-0.0130187 0.00425367 0.017775
-0.01375 0.00475 0.015063
0.00710613 -0.00826221 0.0153738
0.0065 -0.00937 0.013
0.00834603 -0.00598271 0.0128001
0.007363 -0.008 0.011
-0.00585138 0.0136619 0.0106939
-0.0085 0.012872 0.009
-0.00593359 0.0136018 0.00944839
-0.00675 0.013555 0.007
0.0108073 0.00109283 0.00767702
0.01055 0.001 0.005
0.0109079 0.00338113 0.00728539
0.010553 0.00375 0.00375
0.0105113 0.00706959 0.00675931
0.010068 0.0065 0.00325
0.00723313 0.0111912 0.00628404
0.0065 0.012518 0.003
-0.0132427 -0.000480798 0.0220005
-0.014 -0.0035 0.022129
0.00621629 -0.010024 0.0194217
0.005 -0.012825 0.01925
-0.0129501 0.00106633 0.0198015
-0.01375 0.0005 0.017049
0.00598955 -0.0102009 0.0171078
0.005 -0.011562 0.015
-0.0128013 0.00828638 0.0155933
-0.014053 0.0065 0.0135
-0.0131768 0.00775047 0.0149653
-0.01352 0.0085 0.012
-0.00942664 0.0122887 0.0120343
-0.0115 0.010915 0.01025
0.00899363 -0.00492812 0.0107203
0.008 -0.006813 0.0085
0.00944328 -0.00355799 0.00862484
0.00875 -0.004548 0.0065
-0.00273087 0.0135451 0.00744948
-0.00425 0.013557 0.005
-0.00187082 0.013551 0.00587575
-0.0005 0.013557 0.0035
0.0101588 0.00705992 0.004654
0.009355 0.00875 0.0025
0.00719211 0.0114876 0.00479759
0.008354 0.01075 0.002
0.00448749 -0.0124718 0.0250543
0.003066 -0.0155 0.02525
0.00458452 -0.0129186 0.0217029
0.003565 -0.015 0.02075
-0.0132992 -0.00038898 0.0193446
-0.014053 -0.00375 0.019
0.005348 -0.0117225 0.0190088
0.00375 -0.013553 0.017
-0.0133348 0.00363216 0.0171861
-0.01425 0.00175 0.015063
-0.0139018 0.00273433 0.0157221
-0.014574 0.003 0.01325
0.00648708 -0.00915685 0.0138807
0.004546 -0.01125 0.012
0.00590475 -0.0097848 0.0133165
0.00575 -0.00955 0.01025
0.00791756 -0.0066122 0.00914049
0.00657 -0.00825 0.00825
-0.00807055 0.0129517 0.00918757
-0.01075 0.012028 0.00725
-0.00691344 0.0134337 0.00755935
-0.0085 0.013055 0.0055
0.0104817 -2.09704e-06 0.00687278
0.00925 -0.002046 0.00425
0.0103782 0.000827132 0.00551081
0.009569 0.00025 0.003
0.00246946 0.0131581 0.00484767
0.00225 0.01357 0.002
0.00637056 0.0123108 0.00329903
0.005049 0.01325 0.0015
0.0100348 0.00678556 0.0036453
0.0095 0.0065 0.000959
0.00409148 -0.013947 0.0215922
0.003029 -0.01625 0.02275
-0.0136525 -0.00289078 0.0217512
-0.014057 -0.0065 0.021
0.0044429 -0.012857 0.0182345
0.002878 -0.01525 0.0185
-0.0136788 -0.001662 0.0188883
-0.014557 -0.003 0.01675
-0.01371 0.00030653 0.0175897
-0.01475 -0.001 0.015048
0.00484498 -0.011418 0.0157317
0.00275 -0.013381 0.014
0.00472662 -0.0110139 0.012589
0.00325 -0.0125 0.012223
-0.0138102 0.0068627 0.0138151
-0.01501 0.00525 0.01125
-0.0135871 0.00793391 0.0125561
-0.01425 0.007549 0.00975
-0.0111572 0.0111228 0.0104867
-0.01305 0.00975 0.0085
0.00794229 -0.00667244 0.00894834
0.0075 -0.006846 0.0065
0.00883219 -0.0043822 0.00682871
0.008 -0.005273 0.00475
-0.00425388 0.0135532 0.00536383
-0.006 0.013557 0.0035
-0.00345844 0.0135502 0.00585972
-0.00325 0.013557 0.0025
0.0104164 0.00325245 0.00453416
0.009558 0.0025 0.0015
-0.00277338 0.013694 0.00342389
-0.00125 0.014056 0.001
0.00963714 0.00607707 0.0020499
0.009073 0.0045 0.00025
0.0094402 0.00814397 0.0026616
0.008511 0.009 0
0.00767295 0.0111372 0.00285296
0.007058 0.01125 -0.0005
0.0035818 -0.0149643 0.0217869
0.0025 -0.016772 0.02075
-0.0140028 -0.00476758 0.0207306
-0.014557 -0.0065 0.01875
0.00355318 -0.0140174 0.0180846
0.002 -0.015163 0.0165
0.00300039 -0.0130841 0.0146942
0.00125 -0.014564 0.0145
-0.0141594 0.00212076 0.015163
-0.01507 0.00025 0.013
-0.0146522 0.00141409 0.0138932
-0.015403 0.00175 0.0115
0.00560654 -0.00986096 0.0114986
0.00425 -0.01105 0.00975
0.00562336 -0.00977159 0.0106068
0.005368 -0.01 0.00825
-0.0121241 0.0104524 0.0091093
-0.01225 0.010551 0.00675
0.00732692 -0.00710698 0.00712934
0.00625 -0.008026 0.00525
-0.00828163 0.0130873 0.00584603
-0.01 0.012555 0.004
0.00843001 -0.00460547 0.00553014
0.00804 -0.00375 0.00275
0.00967072 -3.29768e-05 0.00378519
0.008545 -0.00175 0.0015
0.009333 -0.000548084 0.00309963
0.00875 0.0005 0.000611
0.00523434 0.0130843 0.00172961
0.003823 0.014 -0.00025
-0.00122935 0.0139123 0.00154956
0.001 0.01406 -0.0005
0.00588601 0.0126573 0.00214787
0.00575 0.012852 -0.001
0.00319612 -0.0149582 0.0252417
0.0015 -0.017891 0.0255
-0.0140973 -0.00586287 0.021086
-0.014573 -0.00925 0.02275
-0.0140852 -0.00605401 0.0210602
-0.014559 -0.0085 0.02
0.00301344 -0.0147678 0.0182271
0.001 -0.017 0.018301
-0.014269 -0.00298776 0.0177764
-0.015034 -0.00525 0.01675
-0.0144756 -0.00313278 0.0171106
-0.015189 -0.004 0.015
-0.014639 -0.00093191 0.0154279
-0.015542 -0.00225 0.0135
0.00214273 -0.0136234 0.0142996
0.00025 -0.014082 0.01225
-0.0150415 0.00129868 0.0126155
-0.015556 -0.00025 0.01075
0.00394621 -0.0116753 0.0120927
0.002 -0.012872 0.00975
-0.0145973 0.00541964 0.011646
-0.01525 0.003552 0.009
-0.0147931 0.00485935 0.0108522
-0.015 0.006 0.008057
-0.0126628 0.00991944 0.00864949
-0.014186 0.008 0.007
0.00658923 -0.00779866 0.00630674
0.00475 -0.00975 0.005952
-0.00966518 0.0125271 0.00502609
-0.01175 0.011543 0.0045
0.00686955 -0.00753582 0.00661933
0.0065 -0.006772 0.00325
-0.00834714 0.0130776 0.00574222
-0.008 0.013362 0.00225
-0.00509186 0.0135552 0.00376464
-0.00575 0.013557 0.00125
-0.00231017 0.0137595 0.00286159
-0.00325 0.013582 0.00025
0.00960644 0.00274078 0.00189805
0.00875 0.0025 -0.000546
0.00944889 0.00621547 0.00129337
0.008557 0.00625 -0.00125
0.00854823 0.00865607 0.000361712
0.007582 0.00875 -0.00175
0.000776608 0.014015 -0.000264142
0.00275 0.014068 -0.002
0.00183276 -0.017277 0.0249973
0.00075 -0.01905 0.024
0.00259927 -0.0163559 0.0214577
0.001 -0.018385 0.0215
-0.0145037 -0.00636562 0.0193258
-0.015 -0.008 0.018543
0.00154645 -0.015945 0.0178312
-0.0005 -0.017059 0.01675
-0.0148742 -0.0047651 0.0167406
-0.015556 -0.00675 0.01525
0.00142671 -0.0142124 0.0143467
-0.00125 -0.016017 0.01425
-0.0149493 -0.00379373 0.0153831
-0.015556 -0.00475 0.01275
-0.0151847 -0.00193276 0.0136412
-0.015556 -0.003 0.01125
-0.0152525 0.000873723 0.0116757
-0.015556 0.00125 0.0095
0.00314418 -0.0120677 0.0103845
0.00275 -0.012051 0.008
-0.0149295 0.00514709 0.00929959
-0.01525 0.004063 0.00675
-0.0138884 0.00819422 0.00717784
-0.014864 0.0065 0.00575
-0.0124696 0.0102276 0.00732247
-0.01325 0.009565 0.00475
0.00624014 -0.00803229 0.00566348
0.00475 -0.009029 0.00375
-0.00996924 0.0124708 0.00431331
-0.011 0.012055 0.0025
0.00786601 -0.00451875 0.00366447
0.00675 -0.005029 0.00125
-0.00597674 0.0135017 0.00197586
-0.0075 0.013362 0.00025
0.00867566 -0.00137318 0.00190784
0.007058 -0.00275 -0.0005
0.00819036 -0.00178622 0.00118549
0.007574 -0.0005 -0.00125
-0.000627563 0.0139431 0.00100545
-0.00125 0.014061 -0.00175
0.00881406 0.00236705 -0.000242984
0.008 0.00175 -0.002257
0.00711506 0.0110039 -5.70522e-05
0.006559 0.0105 -0.00275
0.00554964 0.0127611 -0.000552681
0.004879 0.01275 -0.003
0.00116221 -0.0182858 0.0247186
-0.00025 -0.02005 0.0255
-0.0144208 -0.00900612 0.0222175
-0.014573 -0.01225 0.02275
0.00109176 -0.0180479 0.0212907
-0.0005 -0.0195 0.020801
-0.0143447 -0.0076822 0.021295
-0.015056 -0.011 0.01975
0.000602405 -0.0166118 0.0176329
-0.00125 -0.018559 0.0185
-0.0149135 -0.0075655 0.0184867
-0.015542 -0.00925 0.017
-0.000217773 -0.0168577 0.0170422
-0.0025 -0.01725 0.015621
-0.00179711 -0.0168581 0.0157356
-0.00325 -0.016411 0.014
-0.000245178 -0.0150184 0.0138064
-0.00225 -0.015544 0.0125
0.000505674 -0.014068 0.0124859
-0.001 -0.014556 0.01075
7.38479e-05 -0.0141902 0.0115642
0.000325 -0.014 0.00925
-0.0153769 0.000167997 0.0109811
-0.015556 -0.002 0.0085
0.0026745 -0.0122344 0.00892034
0.001 -0.01331 0.00725
-0.0154255 0.0010532 0.0100505
-0.015556 0.001 0.00675
0.00272131 -0.0121207 0.00834973
0.003 -0.011412 0.00575
-0.0132178 0.00940556 0.00570899
-0.01425 0.008049 0.0045
0.00492606 -0.0090422 0.00449019
0.00325 -0.0105 0.00366
-0.0110293 0.0117373 0.00426252
-0.01275 0.01055 0.00275
0.00622782 -0.00736957 0.00417773
0.005 -0.007815 0.00175
-0.00855886 0.0131088 0.00322689
-0.0095 0.012864 0.00075
0.00689712 -0.00487076 0.00153263
0.006 -0.005047 -0.0005
-0.00336407 0.013646 0.000874636
-0.005 0.013557 -0.00125
-0.00332985 0.0136268 0.000687245
-0.003 0.014056 -0.00225
0.00856984 0.00218194 -0.000847189
0.007862 0.00375 -0.003
0.000843626 0.0140285 -0.0003349
0.00075 0.014556 -0.00325
0.00869727 0.00616343 -0.000729181
0.007529 0.006 -0.00375
0.00794669 0.00663844 -0.00237001
0.007018 0.008 -0.004
0.0021894 0.0138178 -0.00193566
0.003567 0.01325 -0.00425
0.000484502 -0.0191071 0.024759
-0.000955 -0.02075 0.0235
-0.0146352 -0.0108329 0.0220044
-0.015056 -0.01275 0.021
-0.00119994 -0.0183551 0.0183619
-0.002659 -0.0195 0.01875
-0.000746941 -0.0176352 0.0178928
-0.0035 -0.018567 0.01725
-0.00179711 -0.0168581 0.0157356
-0.0045 -0.017856 0.01575
-0.0152443 -0.00858144 0.0170836
-0.015556 -0.00975 0.01475
-0.00318261 -0.0166707 0.0147631
-0.0055 -0.016572 0.01375
-0.015261 -0.00614149 0.0155409
-0.015543 -0.0085 0.01275
-0.00387783 -0.0166411 0.0144592
-0.00475 -0.015582 0.01175
-0.0153956 -0.00695996 0.0135997
-0.0155 -0.007043 0.011
-0.000767338 -0.0144418 0.0110602
-0.00325 -0.015073 0.01
-0.0154647 -0.00134932 0.00987038
-0.015556 -0.00525 0.00925
-5.85876e-05 -0.0141747 0.0102552
-0.0015 -0.014555 0.008
-0.0154933 0.000465536 0.00833425
-0.015556 -0.001 0.00675
0.00259057 -0.0119916 0.00724884
0.00125 -0.012565 0.0055
-0.0155291 0.000910181 0.00715123
-0.015556 0.002 0.00475
-0.0145856 0.00675323 0.00601536
-0.015542 0.0045 0.00425
-0.0146691 0.00667726 0.00593575
-0.015 0.006823 0.00325
-0.013336 0.00937377 0.0049658
-0.014 0.008871 0.00225
0.00487324 -0.00903824 0.00426813
0.00325 -0.009378 0.0015
-0.0107852 0.0120631 0.00288039
-0.012 0.011371 0.00075
0.00542113 -0.00733863 0.00221681
0.00475 -0.00675 -5.1e-05
-0.00722872 0.0133569 0.000505981
-0.0085 0.013056 -0.00125
0.00721471 -0.00257449 -0.000259524
0.006 -0.0035 -0.002049
0.00754052 -0.00101995 -0.000960643
0.00675 -0.000887 -0.003
0.00810881 0.00183073 -0.0018598
0.007027 0.001 -0.00375
-0.00111694 0.0140976 -0.00132103
-0.0015 0.01455 -0.004
0.00321025 0.0132333 -0.00328983
0.00525 0.011387 -0.0045
0.00257733 0.0135957 -0.00245024
0.002029 0.01425 -0.00475
0.00759955 0.00609953 -0.0033386
0.00675 0.00475 -0.00505
0.00713869 0.00769645 -0.0036376
0.005857 0.00925 -0.0055
-0.000131644 -0.019705 0.0250628
-0.0025 -0.021559 0.0255
-0.0146047 -0.0119123 0.0224398
-0.014573 -0.015 0.02325
-0.000811799 -0.0202166 0.0235836
-0.0025 -0.021192 0.022
-0.00207935 -0.019156 0.0187931
-0.003 -0.020559 0.02025
-0.0148912 -0.0120398 0.0209221
-0.015189 -0.0135 0.019
-0.0149684 -0.0102183 0.0196844
-0.015556 -0.012 0.01775
-0.00427131 -0.0177968 0.0158563
-0.006 -0.0185 0.016142
-0.015329 -0.00946903 0.0160101
-0.01507 -0.012 0.01525
-0.00508247 -0.0166686 0.0141249
-0.0075 -0.01705 0.01425
-0.0153684 -0.00978171 0.0151827
-0.015043 -0.011 0.01325
-0.00610866 -0.0166864 0.0139312
-0.00775 -0.01606 0.0125
-0.0150665 -0.0102052 0.0136877
-0.014569 -0.01025 0.0115
-0.00496091 -0.0159148 0.0122669
-0.0065 -0.01556 0.0105
-0.0152399 -0.0074811 0.011955
-0.01475 -0.00875 0.009954
-0.0153944 -0.00480384 0.00918889
-0.015057 -0.007 0.0085
-0.0154528 -0.0029295 0.0093
-0.015556 -0.004 0.0075
0.0011798 -0.0130738 0.00763814
-0.00075 -0.014003 0.00625
-0.0155309 -0.000623785 0.0068937
-0.015556 -0.00175 0.005
0.00143623 -0.0124613 0.00577954
0 -0.013014 0.004
0.00349254 -0.0102464 0.00382255
0.00175 -0.0115 0.00322
-0.0149143 0.00647592 0.00375944
-0.015072 0.00575 0.002
-0.0117669 0.0113333 0.00184259
-0.01325 0.01005 0.001
0.00497797 -0.00730729 0.00129415
0.00355 -0.00825 -0
-0.0111583 0.0117858 0.00248602
-0.01075 0.012072 -0.00075
0.00482101 -0.00688463 0.000289554
0.004557 -0.006 -0.00175
-0.0048265 0.0135776 -0.000990117
-0.00625 0.013529 -0.00275
0.00694992 -0.00113499 -0.00219952
0.00575 -0.00225 -0.003546
LINES 599 1797
2 2 1
2 6 2
2 12 3
2 2 4
2 10 5
2 14 6
2 16 7
2 4 8
2 20 9
2 8 10
2 18 11
2 4 12
2 26 13
2 0 14
2 24 15
2 6 16
2 32 17
2 10 18
2 34 19
2 8 20
2 38 21
2 14 22
2 42 23
2 22 24
2 30 25
2 12 26
2 26 27
2 22 28
2 44 29
2 24 30
2 48 31
2 16 32
2 58 33
2 36 34
2 62 35
2 18 36
2 66 37
2 20 38
2 68 39
2 34 40
2 72 41
2 28 42
2 64 43
2 28 44
2 78 45
2 30 46
2 82 47
2 46 48
2 48 49
2 42 50
2 60 51
2 40 52
2 52 53
2 36 54
2 96 55
2 38 56
2 84 57
2 32 58
2 100 59
2 74 60
2 86 61
2 52 62
2 106 63
2 50 64
2 92 65
2 54 66
2 94 67
2 56 68
2 114 69
2 58 70
2 116 71
2 40 72
2 102 73
2 50 74
2 74 75
2 62 76
2 76 77
2 44 78
2 110 79
2 78 80
2 132 81
2 46 82
2 134 83
2 56 84
2 136 85
2 90 86
2 88 87
2 86 88
2 104 89
2 60 90
2 124 91
2 64 92
2 126 93
2 66 94
2 146 95
2 54 96
2 96 97
2 68 98
2 98 99
2 70 100
2 118 101
2 72 102
2 180 103
2 88 104
2 138 105
2 76 106
2 140 107
2 106 108
2 144 109
2 80 110
2 148 111
2 80 112
2 150 113
2 98 114
2 172 115
2 70 116
2 176 117
2 100 118
2 156 119
2 102 120
2 182 121
2 104 122
2 186 123
2 90 124
2 164 125
2 92 126
2 126 127
2 94 128
2 168 129
2 128 130
2 170 131
2 112 132
2 174 133
2 82 134
2 134 135
2 84 136
2 202 137
2 122 138
2 158 139
2 108 140
2 208 141
2 122 142
2 142 143
2 108 144
2 190 145
2 128 146
2 192 147
2 110 148
2 218 149
2 112 150
2 196 151
2 114 152
2 200 153
2 136 154
2 154 155
2 118 156
2 204 157
2 160 158
2 206 159
2 138 160
2 184 161
2 140 162
2 212 163
2 124 164
2 214 165
2 148 166
2 166 167
2 130 168
2 220 169
2 130 170
2 222 171
2 152 172
2 254 173
2 132 174
2 226 175
2 116 176
2 178 177
2 176 178
2 258 179
2 120 180
2 232 181
2 120 182
2 234 183
2 160 184
2 236 185
2 142 186
2 240 187
2 186 188
2 188 189
2 144 190
2 244 191
2 146 192
2 192 193
2 150 194
2 250 195
2 194 196
2 252 197
2 172 198
2 256 199
2 152 200
2 292 201
2 154 202
2 262 203
2 156 204
2 260 205
2 158 206
2 266 207
2 162 208
2 238 209
2 184 210
2 272 211
2 162 212
2 274 213
2 164 214
2 278 215
2 214 216
2 280 217
2 166 218
2 282 219
2 168 220
2 284 221
2 170 222
2 286 223
2 174 224
2 288 225
2 224 226
2 226 227
2 202 228
2 298 229
2 204 230
2 300 231
2 180 232
2 336 233
2 182 234
2 264 235
2 210 236
2 270 237
2 208 238
2 268 239
2 188 240
2 310 241
2 240 242
2 242 243
2 190 244
2 276 245
2 244 246
2 316 247
2 220 248
2 248 249
2 194 250
2 250 251
2 196 252
2 368 253
2 198 254
2 254 255
2 198 256
2 326 257
2 178 258
2 258 259
2 230 260
2 330 261
2 228 262
2 376 263
2 234 264
2 302 265
2 206 266
2 340 267
2 238 268
2 342 269
2 236 270
2 346 271
2 210 272
2 348 273
2 212 274
2 308 275
2 246 276
2 354 277
2 216 278
2 356 279
2 216 280
2 280 281
2 218 282
2 360 283
2 248 284
2 320 285
2 222 286
2 324 287
2 290 288
2 370 289
2 224 290
2 294 291
2 200 292
2 374 293
2 290 294
2 332 295
2 262 296
2 296 297
2 228 298
2 378 299
2 230 300
2 424 301
2 264 302
2 384 303
2 266 304
2 386 305
2 268 306
2 306 307
2 274 308
2 392 309
2 242 310
2 312 311
2 310 312
2 352 313
2 246 314
2 314 315
2 314 316
2 316 317
2 282 318
2 406 319
2 284 320
2 408 321
2 252 322
2 410 323
2 286 324
2 412 325
2 256 326
2 416 327
2 326 328
2 328 329
2 334 330
2 330 331
2 372 332
2 476 333
2 260 334
2 426 335
2 232 336
2 382 337
2 304 338
2 430 339
2 338 340
2 340 341
2 306 342
2 388 343
2 270 344
2 390 345
2 344 346
2 394 347
2 272 348
2 396 349
2 308 350
2 446 351
2 312 352
2 450 353
2 276 354
2 400 355
2 278 356
2 358 357
2 356 358
2 402 359
2 318 360
2 404 361
2 366 362
2 362 363
2 322 364
2 462 365
2 320 366
2 464 367
2 322 368
2 466 369
2 288 370
2 414 371
2 294 372
2 472 373
2 292 374
2 422 375
2 296 376
2 478 377
2 298 378
2 378 379
2 420 380
2 482 381
2 336 382
2 428 383
2 302 384
2 432 385
2 304 386
2 438 387
2 342 388
2 440 389
2 344 390
2 498 391
2 350 392
2 444 393
2 346 394
2 394 395
2 348 396
2 396 397
2 352 398
2 454 399
2 354 400
2 456 401
2 358 402
2 402 403
2 360 404
2 518 405
2 318 406
2 520 407
2 362 408
2 522 409
2 364 410
2 524 411
2 324 412
2 468 413
2 370 414
2 528 415
2 328 416
2 530 417
2 416 418
2 532 419
2 332 420
2 536 421
2 374 422
2 534 423
2 300 424
2 424 425
2 334 426
2 426 427
2 382 428
2 546 429
2 434 430
2 548 431
2 384 432
2 432 433
2 338 434
2 556 435
2 388 436
2 488 437
2 386 438
2 494 439
2 436 440
2 492 441
2 440 442
2 496 443
2 392 444
2 444 445
2 350 446
2 504 447
2 446 448
2 508 449
2 398 450
2 506 451
2 400 452
2 578 453
2 398 454
2 514 455
2 452 456
2 512 457
2 406 458
2 458 459
2 408 460
2 584 461
2 364 462
2 462 463
2 366 464
2 526 465
2 368 466
2 466 467
2 412 468
2 468 469
2 372 470
2 596 471
2 470 472
2 472 473
2 422 474
2 474 475
2 380 476
2 476 477
2 376 478
2 542 479
2 478 480
2 544 481
2 380 482
2 538 483
2 428 484
2 550 485
2 430 486
2 554 487
2 490 488
2 552 489
2 436 490
2 490 491
2 442 492
2 558 493
2 438 494
2 564 495
2 442 496
2 562 497
2 390 498
2 502 499
2 496 500
2 570 501
2 498 502
2 572 503
2 448 504
2 504 505
2 450 506
2 574 507
2 448 508
2 508 509
2 454 510
2 580 511
2 456 512
2 582 513
2 510 514
2 514 515
2 404 516
2 516 517
2 516 518
2 586 519
2 458 520
2 520 521
2 460 522
2 522 523
2 410 524
2 588 525
2 464 526
2 594 527
2 414 528
2 528 529
2 418 530
2 530 531
2 418 532
2 598 533
2 474 534
2 534 535
2 420 536
2 536 537
2 540 538
2 538 539
2 482 540
2 540 541
2 480 542
2 542 543
2 480 544
2 544 545
2 484 546
2 546 547
2 486 548
2 548 549
2 484 550
2 550 551
2 488 552
2 552 553
2 486 554
2 554 555
2 434 556
2 556 557
2 492 558
2 558 559
2 494 560
2 560 561
2 500 562
2 566 563
2 560 564
2 568 565
2 562 566
2 566 567
2 564 568
2 568 569
2 500 570
2 570 571
2 502 572
2 572 573
2 576 574
2 574 575
2 506 576
2 576 577
2 452 578
2 578 579
2 510 580
2 580 581
2 512 582
2 582 583
2 460 584
2 584 585
2 518 586
2 586 587
2 592 588
2 588 589
2 526 590
2 590 591
2 524 592
2 592 593
2 590 594
2 594 595
2 470 596
2 596 597
2 532 598
2 598 599
CELL_DATA 599
SCALARS radius float
LOOKUP_TABLE default
0.124739
0.899196
0.0937088
0.898395
0.0808436
0.935044
0.0946787
0.895146
0.109052
0.80515
0.118134
0.198649
0.11262
1.12212
0.0886156
0.448917
0.0927443
0.804878
0.0993921
0.580203
0.090953
0.841274
0.0824865
0.288808
0.107757
0.191439
0.17745
0.829772
0.0803859
0.286
0.117033
0.447509
0.0997516
0.716312
0.0893113
0.804029
0.0890398
0.578916
0.0850149
0.715674
0.133372
0.696684
0.100514
0.615492
0.0840464
0.280807
0.12282
0.191999
0.176247
0.696299
0.112308
0.644373
0.135631
0.533951
0.122864
0.578167
0.110946
0.446177
0.0994305
0.686703
0.0892674
0.642364
0.0941441
0.226047
0.118979
0.525864
0.119125
0.486257
0.0979674
0.444509
0.0978363
0.462616
0.114612
0.688265
0.130367
0.641788
0.142376
0.615035
0.0846067
0.614511
0.0935753
0.246975
0.145015
0.427802
0.105732
0.652661
0.118804
0.652104
0.113914
0.6857
0.103029
0.219218
0.117208
0.525012
0.105118
0.189576
0.170523
0.485389
0.147175
0.40156
0.145904
0.458891
0.111443
0.650787
0.0948087
0.639444
0.0903483
0.638763
0.0934445
0.398862
0.10593
0.55244
0.10916
0.480837
0.104266
0.284707
0.135181
0.399517
0.131554
0.456495
0.119889
0.649621
0.0954778
0.354084
0.0988673
0.20685
0.193458
0.522959
0.0881656
0.508773
0.131394
0.47328
0.0935875
0.236404
0.216603
0.4253
0.114671
0.570825
0.0993022
0.566086
0.0974771
0.445044
0.143268
0.429486
0.0971514
0.224575
0.134179
0.397589
0.0975295
0.397034
0.0939079
0.479477
0.111493
0.423111
0.155283
0.392922
0.145435
0.476566
0.102921
0.569952
0.117193
0.565318
0.099137
0.351152
0.108634
0.395066
0.153041
0.453796
0.100892
0.33692
0.10536
0.411106
0.129611
0.472058
0.105898
0.280803
0.164212
0.269946
0.172196
0.381752
0.105527
0.340545
0.105298
0.425268
0.102406
0.440039
0.0966705
0.438535
0.148594
0.428006
0.120869
0.21662
0.197885
0.394264
0.110964
0.377744
0.104044
0.408858
0.113238
0.344121
0.131834
0.416021
0.11056
0.387944
0.114702
0.475124
0.115125
0.490536
0.124054
0.422281
0.112982
0.397128
0.117569
0.34852
0.11371
0.344965
0.142513
0.387257
0.0993581
0.452684
0.108087
0.330122
0.113125
0.470828
0.093996
0.184401
0.171936
0.413096
0.130822
0.381008
0.153505
0.37856
0.120647
0.335518
0.159202
0.381533
0.151587
0.48925
0.13715
0.432773
0.097421
0.431159
0.152776
0.426331
0.120253
0.423068
0.12906
0.451007
0.159703
0.194745
0.181909
0.375799
0.0932309
0.207282
0.188789
0.390267
0.132719
0.247946
0.216424
0.323095
0.131495
0.374919
0.117407
0.332025
0.175048
0.473509
0.11014
0.486577
0.111351
0.379057
0.110662
0.270365
0.120876
0.395058
0.128084
0.391865
0.140954
0.312472
0.131417
0.219267
0.197018
0.385184
0.106709
0.444231
0.125321
0.326505
0.157911
0.272883
0.130271
0.461204
0.123981
0.340175
0.124083
0.426868
0.113672
0.371687
0.175114
0.26107
0.155171
0.278417
0.157675
0.319346
0.162939
0.471229
0.11983
0.482917
0.158078
0.391556
0.120415
0.424668
0.141505
0.422952
0.139477
0.249595
0.179193
0.213963
0.197002
0.382968
0.126179
0.442088
0.118748
0.373122
0.105695
0.321915
0.180165
0.387063
0.131987
0.38179
0.184072
0.233675
0.218879
0.379889
0.101468
0.318202
0.164281
0.375807
0.148268
0.39049
0.130273
0.186254
0.172413
0.477204
0.141969
0.370798
0.121059
0.241292
0.139032
0.263621
0.154404
0.386933
0.120812
0.417605
0.119214
0.388053
0.164083
0.30737
0.194113
0.299144
0.195964
0.324943
0.115346
0.347438
0.183113
0.341238
0.147767
0.438705
0.159487
0.230276
0.158341
0.269114
0.140733
0.423353
0.117236
0.333442
0.130285
0.358251
0.135115
0.249626
0.227784
0.345736
0.143378
0.371615
0.167708
0.300753
0.171254
0.355945
0.118291
0.475174
0.116067
0.333021
0.143638
0.265687
0.190608
0.233269
0.215484
0.254862
0.234368
0.412353
0.127998
0.381752
0.12622
0.268955
0.228496
0.32106
0.123549
0.279599
0.127086
0.329582
0.144564
0.305881
0.124988
0.308715
0.168133
0.258528
0.144834
0.366959
0.147247
0.361176
0.16318
0.376465
0.135116
0.327613
0.164923
0.261902
0.24127
0.268973
0.246761
0.363575
0.163278
0.335703
0.14843
0.283883
0.26137
0.375821
0.163147
0.470912
0.116567
0.351359
0.14489
0.427095
0.143278
0.424218
0.153227
0.257172
0.216042
0.33963
0.147998
0.334456
0.190056
0.328148
0.169708
0.371368
0.160145
0.326417
0.146398
0.320491
0.198676
0.270757
0.18891
0.324361
0.160284
0.223175
0.199073
0.348959
0.163536
0.225065
0.195138
0.286733
0.266
0.276123
0.133057
0.202557
0.188516
0.320596
0.230432
0.201325
0.192338
0.353997
0.15987
0.34731
0.170934
0.321293
0.185994
0.351268
0.179652
0.329032
0.174461
0.26582
0.170946
0.298219
0.1978
0.266546
0.143301
0.346831
0.14962
0.385761
0.159529
0.327601
0.199643
0.377528
0.18687
0.318125
0.204644
0.257027
0.239503
0.322817
0.168681
0.273385
0.238507
0.31972
0.154673
0.313828
0.16472
0.250734
0.232853
0.316019
0.21354
0.27945
0.181791
0.235779
0.222767
0.244896
0.2268
0.301615
0.181206
0.337481
0.167068
0.243804
0.225414
0.256728
0.239444
0.311392
0.205814
0.274642
0.253185
0.229121
0.212246
0.275271
0.243424
0.311479
0.210754
0.265255
0.244283
0.285334
0.263215
0.269802
0.248183
0.258432
0.240956
0.287255
0.261612
0.258128
0.23023
0.263818
0.235445
0.247979
0.221767
0.251963
0.235454
0.338189
0.214912
0.310941
0.221855
0.306358
0.204472
0.296262
0.247078
0.293968
0.256396
0.287424
0.258229
0.2894
0.250228
0.273748
0.250478
0.306358
0.201974
0.263512
0.242104
0.256719
0.236444
0.284659
0.26494
0.268878
0.248367
0.271157
0.240607
0.249949
0.213014
0.324162
0.225846
0.294284
0.214509
0.282494
0.261494
0.233567
0.218183
0.295675
0.257787
