# vtk DataFile Version 3.0
Tree
ASCII
DATASET POLYDATA
POINTS 800 float
-0.004 0.02 0.0265
0.0065 0.01 0.026302
0.00461 0.0117065 0.0248517
0.00725 0.009063 0.02275
0.00651684 0.00919274 0.0236607
0.008403 0.00575 0.023
0.002251 0.0141968 0.0248625
0.004365 0.0135 0.02175
0.00783138 0.0069871 0.0226343
0.009056 0.00525 0.02075
0.00804432 0.00594859 0.0228192
0.00825 0.001955 0.02325
0.00673679 0.00915382 0.0233875
0.00752 0.0095 0.0185
-0.00062446 0.0168663 0.0256158
0.00025 0.016072 0.02175
0.00362524 0.0136039 0.0222794
0.004366 0.0125 0.01775
0.00836127 0.00367452 0.0223732
0.009 0.00125 0.020857
0.00840375 0.00641489 0.0213017
0.009558 0.00625 0.01675
-0.000615931 0.0166789 0.0240308
-0.00225 0.01706 0.02175
-0.000156625 0.0161694 0.0223182
0.0005 0.014557 0.0175
0.00741777 0.00917922 0.019084
0.00805 0.00875 0.015
-0.00152637 0.0167536 0.0220323
-0.002 0.01651 0.0195
0.00080004 0.014637 0.0184818
0.002322 0.013 0.0155
0.00431722 0.0124045 0.0184418
0.00525 0.010582 0.01375
0.00862035 0.00176754 0.0215132
0.00825 -0.0025 0.020887
0.00854263 0.00233964 0.0217712
0.010057 0.001 0.01675
0.0093124 0.00632516 0.0172966
0.01 0.00633 0.0135
0.00830149 -0.000297149 0.0218673
0.007057 -0.00475 0.02525
-0.00174346 0.0168455 0.0219476
-0.0055 0.01706 0.0205
-0.00204423 0.0164539 0.0199912
-0.0035 0.0155 0.016678
0.00102896 0.0140008 0.0169951
-0.0005 0.01325 0.013613
0.00172247 0.0133704 0.0158067
0.00275 0.012 0.012244
-0.00371512 0.01661 0.0217391
-0.008582 0.01475 0.02325
0.00838266 -0.00137655 0.0210527
0.00901 -0.0025 0.0185
0.00991895 0.00167151 0.0173251
0.010862 0.00225 0.0145
0.00940884 0.00679567 0.0145286
0.008871 0.008 0.01175
0.00523151 0.011023 0.0143414
0.00625 0.010074 0.0105
-0.00705581 0.014514 0.0225056
-0.010084 0.01125 0.02275
0.00831102 -0.00198321 0.0209632
0.00757 -0.0055 0.02025
-0.00465692 0.0165785 0.0208111
-0.007 0.015517 0.0175
0.00998245 0.00136262 0.0170605
0.01025 -0.001 0.014349
0.00980102 0.00624354 0.0138269
0.01107 0.00375 0.0115
0.00520112 0.0108588 0.0122167
0.00425 0.01125 0.010046
0.00746883 -0.00356722 0.0232669
0.00675 -0.006887 0.023
-0.00615876 0.0152914 0.0219566
-0.009 0.014827 0.0205
0.0081374 -0.00335509 0.0202937
0.0085 -0.005 0.017556
-0.00359415 0.0155437 0.0171984
-0.0055 0.014566 0.01475
-0.00406055 0.0150015 0.0158096
-0.00325 0.013556 0.012
0.000251585 0.0133571 0.0140242
0 0.01256 0.01025
0.00945928 0.00735192 0.0123137
0.01005 0.00775 0.009
-0.00958146 0.0115945 0.0227194
-0.01175 0.00875 0.02292
-0.0105955 0.0100607 0.0224789
-0.011403 0.00775 0.0205
-0.00862171 0.0127039 0.0226382
-0.010689 0.0115 0.019
-0.00669277 0.0153911 0.0186144
-0.00925 0.013551 0.01675
0.00984158 -0.000719664 0.0156228
0.00925 -0.004049 0.01425
0.0104832 0.00172125 0.0153298
0.011053 0.00025 0.01175
0.0104245 0.00523171 0.0123717
0.011082 0.00525 0.00925
0.00607898 0.0104011 0.010927
0.00825 0.01 0.008277
0.00689404 -0.00586031 0.0234298
0.005571 -0.00975 0.02525
-0.0110747 0.00847345 0.0216886
-0.012 0.0045 0.021781
0.00774174 -0.00496269 0.0201288
0.007054 -0.00825 0.01925
0.00753229 -0.00617049 0.0194535
0.007572 -0.00725 0.017
-0.00523104 0.0146132 0.0151356
-0.008 0.013566 0.01425
-0.00414822 0.0144088 0.0141776
-0.00625 0.013556 0.0115
0.010801 0.00425675 0.0115946
0.0115 0.001972 0.009
0.00438787 0.0112881 0.0104843
0.002857 0.0125 0.00775
0.00673029 0.0102808 0.010132
0.00625 0.011545 0.007
0.00649713 -0.00702722 0.0239758
0.006 -0.010333 0.022
-0.0115631 0.00653598 0.0213795
-0.01225 0.004568 0.01925
-0.0103945 0.0111853 0.0197529
-0.012 0.009 0.017531
-0.00892169 0.0136571 0.0169966
-0.011 0.011827 0.0155
0.00967396 -0.00230532 0.014349
0.00975 -0.003529 0.01225
0.00981622 -0.0026966 0.0130055
0.0105 -0.002041 0.01
-0.00359396 0.0138799 0.0124464
-0.002948 0.01325 0.0085
0.000170634 0.013018 0.0108497
0.00025 0.013057 0.007
0.0100797 0.00731077 0.00955382
0.011 0.00675 0.006244
-0.0119522 0.00508335 0.0216656
-0.01325 0.00125 0.022419
0.00708154 -0.00783717 0.0193562
0.006055 -0.0105 0.0195
-0.0118897 0.00596459 0.0202264
-0.012571 0.00625 0.01725
0.00742508 -0.00716819 0.0174214
0.007104 -0.0085 0.015
0.00932622 -0.00350972 0.0141255
0.00825 -0.006549 0.013
-0.00702635 0.0138321 0.0142458
-0.00955 0.01225 0.0115
-0.00526929 0.0138974 0.0118711
-0.00575 0.013557 0.009
0.0110404 0.00335652 0.0096154
0.011057 0.003 0.00675
0.0103929 0.00735099 0.00782785
0.010016 0.009 0.0055
0.00673652 0.0109307 0.00806675
0.00825 0.01104 0.005
-0.0128878 0.00154 0.0220509
-0.013069 -0.001 0.02175
-0.0123077 0.00373688 0.021812
-0.01275 0.00175 0.019063
0.00677358 -0.00863602 0.0193994
0.006055 -0.0105 0.01675
-0.0117663 0.00950916 0.0175333
-0.013 0.008321 0.015
-0.00877283 0.0126923 0.0128907
-0.01175 0.01055 0.013
0.00968407 -0.00328961 0.0124507
0.009 -0.005327 0.0105
0.00990774 -0.00276421 0.0109526
0.009557 -0.0035 0.00825
0.0110889 0.00240359 0.00904808
0.0105 -0.00078 0.00675
-0.00281927 0.0135372 0.00892284
-0.00175 0.013556 0.0055
0.0036753 0.0120549 0.00850576
0.004 0.013043 0.00475
0.00351038 0.0126821 0.0063045
0.0015 0.0135 0.004318
0.00571566 -0.00931807 0.0246384
0.0045 -0.012875 0.02525
0.00579901 -0.00982745 0.0227203
0.004572 -0.01325 0.02175
-0.0127559 0.00184475 0.020145
-0.013403 -0.00075 0.019
-0.0122484 0.00509574 0.019433
-0.013551 0.00325 0.017
-0.0130187 0.00425367 0.017775
-0.01375 0.00475 0.015063
0.00710613 -0.00826221 0.0153738
0.0065 -0.00937 0.013
0.00834603 -0.00598271 0.0128001
0.007363 -0.008 0.011
-0.00585138 0.0136619 0.0106939
-0.0085 0.012872 0.009
-0.00593359 0.0136018 0.00944839
-0.00675 0.013555 0.007
0.0108073 0.00109283 0.00767702
0.01055 0.001 0.005
0.0109079 0.00338113 0.00728539
0.010553 0.00375 0.00375
0.0105113 0.00706959 0.00675931
0.010068 0.0065 0.00325
0.00723313 0.0111912 0.00628404
0.0065 0.012518 0.003
-0.0132427 -0.000480798 0.0220005
-0.014 -0.0035 0.022129
0.00621629 -0.010024 0.0194217
0.005 -0.012825 0.01925
-0.0129501 0.00106633 0.0198015
-0.01375 0.0005 0.017049
0.00598955 -0.0102009 0.0171078
0.005 -0.011562 0.015
-0.0128013 0.00828638 0.0155933
-0.014053 0.0065 0.0135
-0.0131768 0.00775047 0.0149653
-0.01352 0.0085 0.012
-0.00942664 0.0122887 0.0120343
-0.0115 0.010915 0.01025
0.00899363 -0.00492812 0.0107203
0.008 -0.006813 0.0085
0.00944328 -0.00355799 0.00862484
0.00875 -0.004548 0.0065
-0.00273087 0.0135451 0.00744948
-0.00425 0.013557 0.005
-0.00187082 0.013551 0.00587575
-0.0005 0.013557 0.0035
0.0101588 0.00705992 0.004654
0.009355 0.00875 0.0025
0.00719211 0.0114876 0.00479759
0.008354 0.01075 0.002
0.00448749 -0.0124718 0.0250543
0.003066 -0.0155 0.02525
0.00458452 -0.0129186 0.0217029
0.003565 -0.015 0.02075
-0.0132992 -0.00038898 0.0193446
-0.014053 -0.00375 0.019
0.005348 -0.0117225 0.0190088
0.00375 -0.013553 0.017
-0.0133348 0.00363216 0.0171861
-0.01425 0.00175 0.015063
-0.0139018 0.00273433 0.0157221
-0.014574 0.003 0.01325
0.00648708 -0.00915685 0.0138807
0.004546 -0.01125 0.012
0.00590475 -0.0097848 0.0133165
0.00575 -0.00955 0.01025
0.00791756 -0.0066122 0.00914049
0.00657 -0.00825 0.00825
-0.00807055 0.0129517 0.00918757
-0.01075 0.012028 0.00725
-0.00691344 0.0134337 0.00755935
-0.0085 0.013055 0.0055
0.0104817 -2.09704e-06 0.00687278
0.00925 -0.002046 0.00425
0.0103782 0.000827132 0.00551081
0.009569 0.00025 0.003
0.00246946 0.0131581 0.00484767
0.00225 0.01357 0.002
0.00637056 0.0123108 0.00329903
0.005049 0.01325 0.0015
0.0100348 0.00678556 0.0036453
0.0095 0.0065 0.000959
0.00409148 -0.013947 0.0215922
0.003029 -0.01625 0.02275
-0.0136525 -0.00289078 0.0217512
-0.014057 -0.0065 0.021
0.0044429 -0.012857 0.0182345
0.002878 -0.01525 0.0185
-0.0136788 -0.001662 0.0188883
-0.014557 -0.003 0.01675
-0.01371 0.00030653 0.0175897
-0.01475 -0.001 0.015048
0.00484498 -0.011418 0.0157317
0.00275 -0.013381 0.014
0.00472662 -0.0110139 0.012589
0.00325 -0.0125 0.012223
-0.0138102 0.0068627 0.0138151
-0.01501 0.00525 0.01125
-0.0135871 0.00793391 0.0125561
-0.01425 0.007549 0.00975
-0.0111572 0.0111228 0.0104867
-0.01305 0.00975 0.0085
0.00794229 -0.00667244 0.00894834
0.0075 -0.006846 0.0065
0.00883219 -0.0043822 0.00682871
0.008 -0.005273 0.00475
-0.00425388 0.0135532 0.00536383
-0.006 0.013557 0.0035
-0.00345844 0.0135502 0.00585972
-0.00325 0.013557 0.0025
0.0104164 0.00325245 0.00453416
0.009558 0.0025 0.0015
-0.00277338 0.013694 0.00342389
-0.00125 0.014056 0.001
0.00963714 0.00607707 0.0020499
0.009073 0.0045 0.00025
0.0094402 0.00814397 0.0026616
0.008511 0.009 0
0.00767295 0.0111372 0.00285296
0.007058 0.01125 -0.0005
0.0035818 -0.0149643 0.0217869
0.0025 -0.016772 0.02075
-0.0140028 -0.00476758 0.0207306
-0.014557 -0.0065 0.01875
0.00355318 -0.0140174 0.0180846
0.002 -0.015163 0.0165
0.00300039 -0.0130841 0.0146942
0.00125 -0.014564 0.0145
-0.0141594 0.00212076 0.015163
-0.01507 0.00025 0.013
-0.0146522 0.00141409 0.0138932
-0.015403 0.00175 0.0115
0.00560654 -0.00986096 0.0114986
0.00425 -0.01105 0.00975
0.00562336 -0.00977159 0.0106068
0.005368 -0.01 0.00825
-0.0121241 0.0104524 0.0091093
-0.01225 0.010551 0.00675
0.00732692 -0.00710698 0.00712934
0.00625 -0.008026 0.00525
-0.00828163 0.0130873 0.00584603
-0.01 0.012555 0.004
0.00843001 -0.00460547 0.00553014
0.00804 -0.00375 0.00275
0.00967072 -3.29768e-05 0.00378519
0.008545 -0.00175 0.0015
0.009333 -0.000548084 0.00309963
0.00875 0.0005 0.000611
0.00523434 0.0130843 0.00172961
0.003823 0.014 -0.00025
-0.00122935 0.0139123 0.00154956
0.001 0.01406 -0.0005
0.00588601 0.0126573 0.00214787
0.00575 0.012852 -0.001
0.00319612 -0.0149582 0.0252417
0.0015 -0.017891 0.0255
-0.0140973 -0.00586287 0.021086
-0.014573 -0.00925 0.02275
-0.0140852 -0.00605401 0.0210602
-0.014559 -0.0085 0.02
0.00301344 -0.0147678 0.0182271
0.001 -0.017 0.018301
-0.014269 -0.00298776 0.0177764
-0.015034 -0.00525 0.01675
-0.0144756 -0.00313278 0.0171106
-0.015189 -0.004 0.015
-0.014639 -0.00093191 0.0154279
-0.015542 -0.00225 0.0135
0.00214273 -0.0136234 0.0142996
0.00025 -0.014082 0.01225
-0.0150415 0.00129868 0.0126155
-0.015556 -0.00025 0.01075
0.00394621 -0.0116753 0.0120927
[...]
CELL_DATA 799
SCALARS radius float
LOOKUP_TABLE default
0.115518
0.921457
0.086623
0.920852
0.0745478
0.948976
0.0878255
0.918411
0.100508
0.832707
0.108734
0.183628
0.104105
1.15296
0.0822419
0.416422
0.0860311
0.832508
0.0913092
0.582122
0.0834927
0.878517
0.0764142
0.268035
0.100006
0.176964
0.164032
0.870121
0.0743131
0.265429
0.108616
0.415116
0.0925312
0.747021
0.0815981
0.831889
0.0812473
0.581122
0.0776734
0.746566
0.121935
0.732158
0.0929436
0.643364
0.0773803
0.26061
0.113986
0.178189
0.163571
0.73188
0.103408
0.691157
0.124047
0.54156
0.112192
0.580546
0.100986
0.413881
0.0922333
0.725053
0.0817841
0.689823
0.0855143
0.209021
0.110018
0.535598
0.108191
0.482455
0.0890427
0.412333
0.0907545
0.4413
0.104562
0.726153
0.120209
0.689442
0.129735
0.643034
0.0775432
0.64266
0.0852344
0.229211
0.134585
0.436848
0.0954884
0.701829
0.10853
0.701458
0.103738
0.724351
0.0945958
0.202706
0.10838
0.534974
0.0950451
0.173109
0.155711
0.481783
0.134077
0.372493
0.135343
0.438175
0.100975
0.700591
0.0856902
0.687907
0.0814418
0.687466
0.084152
0.394439
0.0967013
0.588733
0.0994636
0.478297
0.0940737
0.264099
0.125396
0.370599
0.122032
0.436181
0.109231
0.699832
0.0859354
0.325102
0.0907751
0.191271
0.178887
0.533495
0.079167
0.523504
0.11837
0.524702
0.0841998
0.219401
0.201024
0.435041
0.102499
0.622773
0.088508
0.626824
0.0870605
0.466029
0.129474
0.428393
0.0868618
0.203054
0.121321
0.393438
0.0882371
0.390618
0.0849773
0.477266
0.099963
0.433502
0.139423
0.364481
0.134908
0.569539
0.0907754
0.622231
0.105535
0.626366
0.0888424
0.32241
0.0997426
0.391481
0.138933
0.487009
0.0896214
0.303523
0.0949165
0.40773
0.116268
0.523952
0.0946993
0.260477
0.152325
0.250406
0.159732
0.375903
0.0946674
0.31027
0.0959371
0.382964
0.0922194
0.462674
0.0860399
0.461684
0.132772
0.427308
0.107328
0.195861
0.178922
0.388456
0.100797
0.375821
0.0934346
0.406054
0.100605
0.344626
0.116425
0.428641
0.0970705
0.359863
0.106399
0.568826
0.100061
0.580052
0.109738
0.380274
0.101743
0.369821
0.105018
0.319993
0.104403
0.31673
0.130848
0.385559
0.0890747
0.48631
0.0945464
0.297399
0.101911
0.523226
0.0824615
0.1649
0.153753
0.426678
0.115789
0.353429
0.142394
0.373458
0.106979
0.30569
0.145049
0.343579
0.136508
0.579398
0.120209
0.457994
0.0855795
0.45698
0.134848
0.426108
0.105102
0.423826
0.114103
0.485294
0.139885
0.176902
0.165242
0.374367
0.0828457
0.185943
0.169354
0.392617
0.116578
0.229999
0.200759
0.299708
0.121977
0.402774
0.100631
0.302507
0.159486
0.568054
0.0934872
0.578083
0.096032
0.34135
0.099654
0.24347
0.108852
0.368104
0.113765
0.402867
0.12219
0.286896
0.120661
0.20132
0.180892
0.384012
0.0940863
0.481388
0.108106
0.294141
0.142258
0.281991
0.111603
0.517708
0.108175
0.341799
0.10683
0.488167
0.0971165
0.400886
0.15145
0.23107
0.13734
0.258264
0.146262
0.290956
0.148453
0.567017
0.0987409
0.576345
0.137259
0.365232
0.106628
0.453032
0.123206
0.452011
0.120327
0.220668
0.158425
0.189166
0.174171
0.382408
0.112198
0.480169
0.0997737
0.372417
0.0914879
0.290005
0.162306
0.390403
0.113519
0.386907
0.160714
0.216761
0.203035
0.421992
0.0834444
0.29517
0.152389
0.371419
0.129261
0.400438
0.106316
0.158093
0.146344
0.573738
0.120564
0.333913
0.109017
0.217289
0.125202
0.237397
0.139045
0.361515
0.10527
0.448939
0.100746
0.400468
0.139806
0.282212
0.178225
0.274659
0.179924
0.343567
0.0986259
0.371298
0.155915
0.350568
0.129479
0.478336
0.132232
0.204625
0.140703
0.279621
0.115293
0.48639
0.0952623
0.337236
0.108074
0.393547
0.112669
0.220941
0.201609
0.405974
0.111943
0.368437
0.144555
0.274015
0.15603
0.490612
0.0943504
0.57284
0.0963319
0.299894
0.12935
0.235267
0.168785
0.210065
0.194049
0.22951
0.211054
0.446039
0.107069
0.39664
0.105379
0.246941
0.209794
0.341199
0.101253
0.24862
0.113006
0.361898
0.116434
0.328983
0.10491
0.278114
0.151467
0.273564
0.107616
0.377433
0.11331
0.373979
0.134207
0.420271
0.114505
0.333624
0.126006
0.242945
0.223806
0.249503
0.228899
0.363056
0.133497
0.371631
0.108956
0.258645
0.238134
0.39205
0.136513
0.571054
0.0880322
0.489275
0.110438
0.509985
0.11573
0.508836
0.12019
0.227727
0.191307
0.324676
0.127772
0.320944
0.158743
0.355372
0.139806
0.390763
0.119038
0.352661
0.113135
0.267573
0.165871
0.240757
0.167979
0.359352
0.113999
0.195555
0.174436
0.38766
0.129259
0.199995
0.173401
0.258311
0.239633
0.341768
0.0952087
0.240321
0.112986
0.3298
0.188467
0.165564
0.158173
0.391342
0.120313
0.388204
0.128755
0.39658
0.135795
0.35525
0.152936
0.368708
0.137254
0.367422
0.117468
0.377002
0.158498
0.340962
0.0957297
0.488103
0.104223
0.45161
0.117574
0.295013
0.179784
0.448754
0.127296
0.286479
0.184287
0.221901
0.206772
0.352652
0.126184
0.280765
0.170718
0.34934
0.112432
0.26201
0.137522
0.244116
0.145994
0.33843
0.176015
0.321751
0.132874
0.209655
0.198085
0.197242
0.182668
0.326607
0.119282
0.382462
0.127617
0.266561
0.123018
0.295772
0.133536
0.297875
0.162331
0.307857
0.173621
0.19417
0.17987
0.323955
0.142619
0.393584
0.12042
0.313311
0.137713
0.302742
0.184575
0.311448
0.146389
0.345334
0.124002
0.244538
0.222708
0.36573
0.115629
0.207554
0.185232
0.207495
0.185562
0.336459
0.113369
0.486211
0.12881
0.357033
0.121715
0.39843
0.106484
0.352731
0.127772
0.396039
0.136664
0.355315
0.125392
0.260612
0.225336
0.25849
0.168393
0.34517
0.119006
0.343445
0.130709
0.303967
0.131301
0.237657
0.221194
0.338339
0.135591
0.318373
0.13087
0.278154
0.169175
0.377476
0.130303
0.322959
0.152216
0.215786
0.199745
0.296404
0.120195
0.288502
0.203323
0.235224
0.150824
0.300653
0.18193
0.307282
0.185512
0.315797
0.170223
0.298367
0.147738
0.303048
0.210168
0.31367
0.131318
0.34168
0.143276
0.361645
0.137184
0.254257
0.177148
0.333856
0.12296
0.372511
0.119441
0.199256
0.186184
0.291845
0.151757
0.367304
0.139484
0.284611
0.200724
0.268015
0.143553
0.294272
0.142641
0.266976
0.169415
0.262291
0.146919
0.349974
0.115854
0.342885
0.139548
0.349783
0.17098
0.27999
0.177591
0.262715
0.236075
0.248051
0.218888
0.28786
0.135855
0.338611
0.165851
0.280914
0.197615
0.298751
0.14299
0.235731
0.215355
0.271984
0.166347
0.277377
0.208333
0.333969
0.156959
0.310463
0.204751
0.266741
0.175306
0.255499
0.168378
0.352333
0.163599
0.260581
0.146999
0.290122
0.196985
0.201917
0.186586
0.293092
0.123824
0.249907
0.2246
0.299895
0.172263
0.226193
0.201175
0.282853
0.209904
0.294772
0.157367
0.279608
0.137149
0.271524
0.220836
0.264707
0.248853
0.298682
0.165439
0.282804
0.163751
0.29138
0.195972
0.308343
0.188499
0.221571
0.202436
0.236595
0.217596
0.308289
0.182927
0.301625
0.182701
0.288735
0.170995
0.277287
0.24783
0.281754
0.201269
0.246441
0.225535
0.258967
0.209645
0.283432
0.203642
0.24286
0.225206
0.256841
0.229455
0.247094
0.228402
0.269194
0.155601
0.263826
0.180427
0.259801
0.239677
0.28557
0.187924
0.256158
0.221957
0.263473
0.226715
0.267922
0.238879
0.256129
0.230462
0.243572
0.22858
0.33199
0.183177
0.224216
0.208073
0.270482
0.238944
0.248752
0.231885
0.260253
0.23528
0.230827
0.215855
0.257778
0.236704
0.246521
0.216927
0.255945
0.224923
0.229985
0.205179
0.29146
0.162475
0.251101
0.23304
0.273153
0.252464
0.280367
0.243259
0.256852
0.186077
0.218993
0.204911
0.279962
0.251571
0.271955
0.182651
0.287083
0.203613
0.247816
0.228908
0.268352
0.248943
0.24113
0.225328
0.273032
0.251788
0.258196
0.233216
