# vtk DataFile Version 4.2
vtk output
ASCII
DATASET POLYDATA
POINTS 17 float
0.0451935 0.0591935 0.0246934 0.0504435 0.0576935 0.0276935 0.0449435 0.0596935 0.0276935 
0.0409435 0.0601935 0.0279435 0.0434435 0.0601935 0.0329435 0.0386935 0.0606935 0.0304435 
0.0396935 0.0604435 0.0324435 0.0384435 0.0604435 0.0304435 0.0369435 0.0604435 0.0324435 
0.0261935 0.0594435 0.0251935 0.0349435 0.0604435 0.0324435 0.0306935 0.0601935 0.0294435 
0.0309435 0.0611935 0.0311935 0.0231934 0.0589435 0.0261935 0.0234434 0.0586935 0.0264435 
0.0276935 0.0604435 0.0321935 0.0146935 0.0536935 0.0251935 

VERTICES 17 34
1 0 
1 1 
1 2 
1 3 
1 4 
1 5 
1 6 
1 7 
1 8 
1 9 
1 10 
1 11 
1 12 
1 13 
1 14 
1 15 
1 16 

POINT_DATA 17
FIELD FieldData 2
LAT 1 17 float
47 44 48 55 62 59.5 61.5 59.5 63 
61.5 64 64.5 65 62 63 64.5 65.5 
METADATA
INFORMATION 0

Active 1 17 float
1 1 1 1 1 1 1 1 1 
1 1 1 1 1 1 1 1 
METADATA
INFORMATION 0

