# vtk DataFile Version 4.1
vtk output
ASCII
DATASET POLYDATA
POINTS 130 float
0.0344285 0.0500945 0.0202264 0.0413585 0.0473725 0.0189884 0.0267565 0.0476195 0.0184934 
0.0351705 0.0491045 0.0219584 0.0267565 0.0476195 0.0199784 0.0294785 0.0481145 0.0214634 
0.0371515 0.0493525 0.0236914 0.0302215 0.0483625 0.0227004 0.0383885 0.0491045 0.0254235 
0.0433385 0.0377195 0.0123065 0.0289835 0.0488575 0.0256705 0.0406155 0.0478675 0.0264135 
0.0450705 0.0441545 0.0229484 0.0453185 0.0419275 0.0209684 0.0450705 0.0389575 0.0184934 
0.0339335 0.0498475 0.0274035 0.0423485 0.0471245 0.0278985 0.0262615 0.0486095 0.0266605 
0.0240334 0.0471245 0.0256705 0.0198264 0.0409375 0.0175034 0.0195784 0.0411845 0.0187414 
0.0272515 0.0491045 0.0281455 0.0458135 0.0404425 0.0256705 0.0430915 0.0463825 0.0296305 
0.0240334 0.0481145 0.0274035 0.0453185 0.0431645 0.0291365 0.0440815 0.0461345 0.0303735 
0.0250235 0.0488575 0.0291365 0.0391305 0.0486095 0.0316115 0.0468035 0.0357395 0.0212154 
0.0220534 0.0466295 0.0283935 0.0373985 0.0493525 0.0321065 0.0336855 0.0498475 0.0313635 
0.0458135 0.0310375 0.0105735 0.0468035 0.0325225 0.0189884 0.0448235 0.0300475 0.0128015 
0.0213114 0.0347495 0.0128015 0.0460615 0.0342545 0.0231964 0.0193304 0.0411845 0.0283935 
0.0317065 0.0503425 0.0330965 0.0193304 0.0354925 0.0229484 0.0450705 0.0441545 0.0353235 
0.0198264 0.0354925 0.0256705 0.0200734 0.0372245 0.0293835 0.0257655 0.0495995 0.0345815 
0.0198264 0.0392045 0.0316115 0.0421005 0.0466295 0.0377985 0.0203214 0.0354925 0.0301265 
0.0297265 0.0500945 0.0363135 0.0406155 0.0476195 0.0380455 0.0220534 0.0409375 0.0353235 
0.0324485 0.0508375 0.0387885 0.0235384 0.0453925 0.0373035 0.0213114 0.0340075 0.0321065 
0.0227954 0.0419275 0.0370555 0.0232914 0.0288095 0.0123065 0.0237854 0.0439075 0.0375515 
0.0386365 0.0478675 0.0410155 0.0435855 0.0208894 0.0194834 0.0344285 0.0495995 0.0410155 
0.0317065 0.0503425 0.0402735 0.0218064 0.0347495 0.0340855 0.0334385 0.0505895 0.0410155 
0.0443285 0.0436595 0.0427485 0.0282415 0.0488575 0.0407685 0.0265085 0.0463825 0.0407685 
0.0416065 0.0461345 0.0434915 0.0240334 0.0426695 0.0392835 0.0235384 0.0406895 0.0395305 
0.0416065 0.0283145 0.0377985 0.0418535 0.0305425 0.0405215 0.0428435 0.0255925 0.0318585 
0.0237854 0.0347495 0.0373035 0.0421005 0.0453925 0.0444805 0.0369035 0.0483625 0.0437385 
0.0416065 0.0263345 0.0345815 0.0408635 0.0196524 0.0217114 0.0418535 0.0179194 0.0184934 
0.0416065 0.0330175 0.0432435 0.0411105 0.0307895 0.0417585 0.0277455 0.0473725 0.0422535 
0.0232914 0.0255925 0.0184934 0.0381405 0.0466295 0.0444805 0.0398735 0.0288095 0.0400255 
0.0232914 0.0295525 0.0308685 0.0411105 0.0246024 0.0326005 0.0237854 0.0246024 0.0135435 
0.0361605 0.0483625 0.0452235 0.0421005 0.0349975 0.0452235 0.0406155 0.0228694 0.0308685 
0.0237854 0.0258395 0.0244334 0.0396255 0.0201474 0.0266605 0.0391305 0.0194044 0.0244334 
0.0430915 0.0367295 0.0464615 0.0274985 0.0446495 0.0429955 0.0411105 0.0327695 0.0454705 
0.0252705 0.0345025 0.0390365 0.0272515 0.0431645 0.0429955 0.0257655 0.0426695 0.0429955 
0.0421005 0.0382145 0.0479465 0.0255185 0.0330175 0.0390365 0.0265085 0.0231174 0.0202264 
0.0398735 0.0453925 0.0479465 0.0257655 0.0369775 0.0422535 0.0267565 0.0297995 0.0370555 
0.0260135 0.0241074 0.0269085 0.0346755 0.0203944 0.0264135 0.0267565 0.0248494 0.0301265 
0.0346755 0.0203944 0.0296305 0.0331915 0.0196524 0.0236914 0.0277455 0.0278195 0.0368085 
0.0274985 0.0416795 0.0459665 0.0282415 0.0297995 0.0405215 0.0270035 0.0364825 0.0447285 
0.0322005 0.0280675 0.0410155 0.0322005 0.0260875 0.0385405 0.0317065 0.0270775 0.0392835 
0.0324485 0.0233644 0.0340855 0.0282415 0.0347495 0.0454705 0.0299735 0.0295525 0.0417585 
0.0277455 0.0384625 0.0469555 0.0317065 0.0246024 0.0353235 0.0299735 0.0238594 0.0330965 
0.0282415 0.0357395 0.0467085 0.0307155 0.0300475 0.0442335 0.0299735 0.0186624 0.0167604 
0.0297285 0.0320245 0.0459685 0.0292305 0.0377195 0.0486885 0.0297265 0.0359875 0.0484405 
0.0307155 0.0352445 0.0494315 

VERTICES 130 260
1 0 
1 1 
1 2 
1 3 
1 4 
1 5 
1 6 
1 7 
1 8 
1 9 
1 10 
1 11 
1 12 
1 13 
1 14 
1 15 
1 16 
1 17 
1 18 
1 19 
1 20 
1 21 
1 22 
1 23 
1 24 
1 25 
1 26 
1 27 
1 28 
1 29 
1 30 
1 31 
1 32 
1 33 
1 34 
1 35 
1 36 
1 37 
1 38 
1 39 
1 40 
1 41 
1 42 
1 43 
1 44 
1 45 
1 46 
1 47 
1 48 
1 49 
1 50 
1 51 
1 52 
1 53 
1 54 
1 55 
1 56 
1 57 
1 58 
1 59 
1 60 
1 61 
1 62 
1 63 
1 64 
1 65 
1 66 
1 67 
1 68 
1 69 
1 70 
1 71 
1 72 
1 73 
1 74 
1 75 
1 76 
1 77 
1 78 
1 79 
1 80 
1 81 
1 82 
1 83 
1 84 
1 85 
1 86 
1 87 
1 88 
1 89 
1 90 
1 91 
1 92 
1 93 
1 94 
1 95 
1 96 
1 97 
1 98 
1 99 
1 100 
1 101 
1 102 
1 103 
1 104 
1 105 
1 106 
1 107 
1 108 
1 109 
1 110 
1 111 
1 112 
1 113 
1 114 
1 115 
1 116 
1 117 
1 118 
1 119 
1 120 
1 121 
1 122 
1 123 
1 124 
1 125 
1 126 
1 127 
1 128 
1 129 

POINT_DATA 130
FIELD FieldData 2
LAT 1 130 float
24.5 25 27.5 26 27 28.5 29.5 28.5 35.5 
36 35 39.5 38.5 32 35.5 33.5 44.5 36.5 
34.5 29 29.5 38.5 32 46.5 35 48.5 49 
40 42 39.5 37.5 42 41 44.5 40.5 42 
47 42.5 38 43.5 42.5 57.5 47 42.5 48 
46 56.5 42 56.5 56 49 49.5 49.5 48.5 
49 47 49.5 56 55 51 50 57.5 51 
65 53 52.5 62.5 52.5 58 49.5 48.5 47.5 
60.5 61.5 57.5 48 55.5 58 46 48 56 
47.5 57.5 50 51.5 47.5 52.5 57.5 45.5 51.5 
50.5 54 54 46 53 45 61 61.5 61 
47 65.5 51 50 67 65.5 54 66 56 
66.5 68.5 65.5 63 72.5 64 76.5 69.5 69.5 
66 68 73.5 64.5 65.5 64 64.5 78 54 
73 67.5 69.5 73.5 
METADATA
INFORMATION 0

Active 1 130 float
1 1 1 1 1 1 1 1 1 
1 1 1 1 1 1 1 1 1 
1 1 1 1 1 1 1 1 1 
1 1 1 1 1 1 1 1 1 
1 1 1 1 1 1 1 1 1 
1 1 1 1 1 1 1 1 1 
1 1 1 1 1 1 1 1 1 
1 1 1 1 1 1 1 1 1 
1 1 1 1 1 1 1 1 1 
1 1 1 1 1 1 1 1 1 
1 1 1 1 1 1 1 1 1 
1 1 1 1 1 1 1 1 1 
1 1 1 1 1 1 1 1 1 
1 1 1 1 1 1 1 1 1 
1 1 1 1 
METADATA
INFORMATION 0

