# vtk DataFile Version 3.0
Tree
ASCII
DATASET POLYDATA
POINTS 260 float
0.041179 0.073827 0.008138
0.04134 0.073529 0.001738
0.0408506 0.0745704 0.00556622
0.038523 0.079712 0.002111
0.0410805 0.07405 0.00736647
0.04558 0.066937 0.002305
0.0409481 0.0743914 0.00286349
0.040603 0.0753 -0.006356
0.0440444 0.0692462 0.00220939
0.045238 0.067055 -0.003821
0.0400392 0.0767354 -0.00135524
0.037998 0.081984 -0.004301
0.0407317 0.0752171 -0.00460706
0.043254 0.070299 -0.009223
0.0391461 0.0790879 0.00300063
0.036758 0.086297 -0.000635
0.0452973 0.0675803 0.00222941
0.050032 0.0618 0.002168
0.0393306 0.0786462 -0.0034905
0.038914 0.080262 -0.010926
0.0414364 0.0738843 -0.00692589
0.040901 0.075182 -0.012268
0.0475631 0.0646535 0.000650477
0.049331 0.062082 -0.003357
0.0384229 0.0812978 -0.00412623
0.03694 0.087334 -0.005542
0.0454592 0.0670019 -0.00273128
0.047733 0.063735 -0.008544
0.0427404 0.071445 -0.00894238
0.045168 0.067473 -0.014274
0.0371687 0.0859478 6.73101e-05
0.036178 0.091229 -0.001243
0.0379056 0.0836193 -0.00552821
0.037588 0.086239 -0.01141
0.0494354 0.0625632 0.0012475
0.053354 0.058487 0.000254
0.0408215 0.075588 -0.0115116
0.040005 0.078115 -0.015672
0.0408453 0.0754662 -0.0117386
0.042145 0.073246 -0.016651
0.0389552 0.0805558 -0.00987972
0.038585 0.083158 -0.015687
0.0372344 0.0866018 -0.00568907
0.036629 0.091391 -0.006627
0.0364676 0.0902707 9.68406e-06
0.035797 0.095351 0.001359
0.0492045 0.0625032 -0.00220582
0.052847 0.058662 -0.005153
0.050933 0.0605577 -0.00511793
0.051215 0.059945 -0.009238
0.0377409 0.0860287 -0.0106389
0.037771 0.088482 -0.015378
0.0530171 0.059018 0.000967562
0.056629 0.055725 0.001667
0.0448831 0.068111 -0.0139164
0.046925 0.065212 -0.01909
0.0460601 0.0664521 -0.0153885
0.049352 0.061853 -0.014454
0.0547256 0.0574199 0.00016423
0.056023 0.056133 -0.002501
0.0461697 0.0663672 -0.0171163
0.045175 0.068237 -0.020591
0.0403551 0.077338 -0.0152152
0.040089 0.07895 -0.019984
0.0405558 0.0773899 -0.0182809
0.041376 0.075681 -0.020714
0.040273 0.0780591 -0.0170025
0.039267 0.082359 -0.020317
0.0414167 0.0756475 -0.0200933
0.042693 0.07312 -0.021973
0.0563285 0.0559943 0.00135957
0.059241 0.053411 0.003228
0.03628 0.0926378 -0.000375236
0.036421 0.097381 -0.005342
0.0393855 0.0822673 -0.0197405
0.038828 0.085717 -0.021099
0.0362859 0.0950979 -0.00165407
0.03605 0.101062 6.9e-05
0.0466872 0.0656658 -0.0186052
0.047978 0.064245 -0.022817
0.0521267 0.0594389 -0.00567187
0.055768 0.056222 -0.009007
0.037892 0.0879269 -0.0148518
0.038246 0.090004 -0.020269
0.0377032 0.0879631 -0.0123749
0.037094 0.0951 -0.012507
0.0480004 0.0638573 -0.0162522
0.050168 0.061127 -0.019274
0.0375457 0.091126 -0.0136297
0.037663 0.093142 -0.016743
0.042457 0.0737494 -0.0217307
0.044038 0.071035 -0.02433
0.0535137 0.0581203 -0.00865634
0.053959 0.057487 -0.013472
0.037196 0.094232 -0.0121572
0.036813 0.097677 -0.009654
0.0577617 0.054764 0.00156535
0.060949 0.052189 -0.000774
0.0362216 0.0987567 -0.00166015
0.036326 0.101349 -0.003645
0.0559274 0.0563436 -0.00171279
0.059325 0.053685 -0.005057
0.0361015 0.100662 -0.000262642
0.035989 0.103965 0.002023
0.0469882 0.0655385 -0.0207803
0.046348 0.067497 -0.026019
0.037717 0.0923922 -0.0163135
0.038057 0.09392 -0.020546
0.0404833 0.0779808 -0.0197034
0.040938 0.078602 -0.025157
0.0554136 0.0566283 -0.00896468
0.058367 0.054419 -0.009457
0.0392737 0.0834487 -0.0208087
0.039662 0.084053 -0.024751
0.0537739 0.0577429 -0.0130191
0.053807 0.057677 -0.017358
0.0393499 0.0842755 -0.022357
0.039069 0.088189 -0.024265
0.0501464 0.0613559 -0.0185828
0.052568 0.058824 -0.020259
0.0476544 0.0647735 -0.0223514
0.049272 0.063308 -0.026911
0.0604052 0.0525585 0.000479539
0.06356 0.04983 0.000361
0.0370775 0.0958479 -0.0116838
0.037088 0.09913 -0.013603
0.0590318 0.0539198 -0.00377209
0.062161 0.051485 -0.00429
0.041955 0.074849 -0.0217109
0.042661 0.074689 -0.027554
0.0363159 0.100161 -0.00327281
0.036634 0.102306 -0.008217
0.0511937 0.0603484 -0.0203334
0.051811 0.059928 -0.023398
0.0381251 0.0928166 -0.0199483
0.038786 0.092162 -0.024458
0.0363189 0.100517 -0.00338446
0.036294 0.106221 -0.002473
0.04069 0.0791195 -0.0239472
0.040572 0.08116 -0.027069
0.0377008 0.0926171 -0.0164423
0.037462 0.098194 -0.017594
0.0542076 0.0575036 -0.0117262
0.057522 0.05509 -0.014691
0.0428993 0.0738901 -0.0260154
0.044319 0.071653 -0.028737
0.0360791 0.103701 0.000970423
0.03615 0.107743 0.001529
0.0624868 0.0504387 0.0012361
0.064234 0.048106 0.003317
0.0466044 0.0670898 -0.025417
0.046532 0.068281 -0.029856
0.0383049 0.0931736 -0.0216558
0.038135 0.096629 -0.023447
0.0468908 0.0671074 -0.0272577
0.04879 0.064918 -0.030004
0.0364603 0.102228 -0.00582744
0.036468 0.105091 -0.006746
0.0578293 0.0548749 -0.00931773
0.06191 0.052152 -0.009693
0.0408124 0.0795336 -0.0255484
0.041792 0.078142 -0.029364
0.063321 0.049362 0.00168019
0.065076 0.047247 0.000395
0.0393376 0.0866552 -0.0245104
0.039627 0.088302 -0.027867
0.0596324 0.0537026 -0.0103369
0.060771 0.053022 -0.012636
0.049367 0.0630657 -0.0251969
0.051922 0.060349 -0.027303
0.0394871 0.085148 -0.0240547
0.040361 0.084558 -0.0291
0.0568548 0.0556183 -0.0147665
0.05798 0.054908 -0.017502
0.0428772 0.0742381 -0.027078
0.043201 0.074835 -0.030638
0.037011 0.0983414 -0.0126218
0.03657 0.103578 -0.012489
0.0572069 0.0554042 -0.0165373
0.056557 0.055865 -0.020576
0.0394264 0.0885287 -0.0265383
0.039324 0.091464 -0.027917
0.0374779 0.0968834 -0.018222
0.037246 0.099887 -0.021153
0.0615292 0.0514138 0.000888079
0.065197 0.048333 -0.003949
0.0503455 0.062161 -0.0265989
0.051429 0.061843 -0.031149
0.038499 0.0931219 -0.0231904
0.038763 0.094755 -0.027213
0.0362457 0.105497 -0.00258015
0.036093 0.110154 -0.001814
0.0613724 0.0521718 -0.00494328
0.064709 0.049764 -0.007511
0.0439508 0.0725154 -0.0285836
0.045032 0.071537 -0.032077
0.0367786 0.100849 -0.0137299
0.036559 0.10281 -0.016693
0.0361261 0.107193 0.00135821
0.036166 0.111551 0.001717
0.0519806 0.0597482 -0.0217392
0.055624 0.056872 -0.024465
0.0411275 0.0795202 -0.0273353
0.041174 0.082122 -0.030953
0.0363922 0.103843 -0.00677608
0.035955 0.106606 -0.010307
0.0538435 0.0583282 -0.0240929
0.05447 0.057964 -0.02703
0.0466675 0.0679922 -0.0293894
0.046603 0.069152 -0.033019
0.0360851 0.107738 -0.00326227
0.035803 0.109508 -0.005673
0.064216 0.0484609 -0.00184561
0.065885 0.045269 -0.001965
0.0640659 0.0480169 0.00151922
0.065257 0.043833 0.003009
0.0383929 0.0949929 -0.0260851
0.037743 0.097471 -0.027782
0.0378376 0.0961596 -0.0230839
0.03683 0.099889 -0.024709
0.0515325 0.0612769 -0.0286099
0.053656 0.059276 -0.029881
0.0400389 0.0856522 -0.0276755
0.040459 0.087623 -0.03122
0.035958 0.106184 -0.00837607
0.035341 0.109045 -0.008455
0.0648189 0.0453187 0.00158261
0.065394 0.043162 4.3e-05
0.0480488 0.0659661 -0.0294301
0.049329 0.06568 -0.03434
0.036385 0.102578 -0.014814
0.035561 0.105344 -0.015062
0.0606798 0.0531086 -0.0119028
0.063617 0.05155 -0.01446
0.0515873 0.0616269 -0.0306631
0.052301 0.061715 -0.034026
0.0415633 0.0788936 -0.0288965
0.042579 0.07849 -0.033415
0.037084 0.0988774 -0.0194494
0.035244 0.103617 -0.019662
0.0626582 0.0518874 -0.0125395
0.065228 0.050083 -0.011985
0.0577417 0.0551961 -0.0189258
0.059674 0.054266 -0.021606
0.0432304 0.0745992 -0.029921
0.043861 0.075016 -0.03418
0.036205 0.100932 -0.0203767
0.035522 0.102153 -0.022579
0.0570168 0.0555198 -0.0155811
0.062243 0.052625 -0.017303
0.0649785 0.047176 -0.00236692
0.066444 0.045439 -0.005339
0.0402123 0.0876839 -0.0299349
0.040178 0.090656 -0.031694
0.0357503 0.106563 -0.00965445
0.034482 0.107838 -0.01268
0.0644187 0.0503726 -0.0117004
0.066743 0.048024 -0.010018
0.0439958 0.0742655 -0.0331873
0.045063 0.072812 -0.035502
LINES 259 777
2 6 1
2 4 2
2 14 3
2 0 4
2 16 5
2 2 6
2 12 7
2 4 8
2 26 9
2 6 10
2 24 11
2 10 12
2 28 13
2 2 14
2 30 15
2 8 16
2 34 17
2 10 18
2 40 19
2 12 20
2 38 21
2 16 22
2 46 23
2 18 24
2 42 25
2 8 26
2 26 27
2 20 28
2 54 29
2 14 30
2 44 31
2 24 32
2 50 33
2 22 34
2 52 35
2 20 36
2 62 37
2 36 38
2 38 39
2 18 40
2 40 41
2 32 42
2 42 43
2 30 44
2 72 45
2 22 46
2 80 47
2 46 48
2 48 49
2 32 50
2 82 51
2 34 52
2 70 53
2 28 54
2 78 55
2 54 56
2 86 57
2 52 58
2 100 59
2 56 60
2 60 61
2 36 62
2 108 63
2 66 64
2 68 65
2 62 66
2 74 67
2 64 68
2 90 69
2 58 70
2 96 71
2 44 72
2 76 73
2 66 74
2 112 75
2 72 76
2 102 77
2 60 78
2 120 79
2 48 80
2 110 81
2 84 82
2 82 83
2 50 84
2 94 85
2 56 86
2 118 87
2 84 88
2 140 89
2 128 90
2 90 91
2 80 92
2 114 93
2 88 94
2 124 95
2 70 96
2 122 97
2 76 98
2 136 99
2 58 100
2 126 101
2 98 102
2 146 103
2 78 104
2 150 105
2 88 106
2 134 107
2 64 108
2 138 109
2 92 110
2 158 111
2 74 112
2 116 113
2 142 114
2 114 115
2 112 116
2 164 117
2 86 118
2 132 119
2 104 120
2 168 121
2 96 122
2 148 123
2 94 124
2 176 125
2 100 126
2 192 127
2 68 128
2 174 129
2 98 130
2 156 131
2 118 132
2 200 133
2 106 134
2 188 135
2 130 136
2 190 137
2 108 138
2 160 139
2 106 140
2 182 141
2 92 142
2 172 143
2 128 144
2 194 145
2 102 146
2 198 147
2 184 148
2 162 149
2 104 150
2 208 151
2 134 152
2 218 153
2 150 154
2 228 155
2 130 156
2 204 157
2 110 158
2 166 159
2 138 160
2 236 161
2 148 162
2 214 163
2 170 164
2 180 165
2 158 166
2 232 167
2 120 168
2 186 169
2 116 170
2 222 171
2 142 172
2 178 173
2 144 174
2 244 175
2 124 176
2 196 177
2 248 178
2 242 179
2 164 180
2 180 181
2 140 182
2 238 183
2 122 184
2 212 185
2 168 186
2 234 187
2 152 188
2 216 189
2 136 190
2 210 191
2 126 192
2 192 193
2 144 194
2 194 195
2 176 196
2 230 197
2 146 198
2 198 199
2 132 200
2 206 201
2 160 202
2 202 203
2 156 204
2 254 205
2 200 206
2 206 207
2 154 208
2 208 209
2 190 210
2 210 211
2 184 212
2 250 213
2 162 214
2 226 215
2 188 216
2 216 217
2 152 218
2 218 219
2 186 220
2 220 221
2 170 222
2 252 223
2 204 224
2 224 225
2 214 226
2 226 227
2 154 228
2 228 229
2 196 230
2 230 231
2 166 232
2 240 233
2 220 234
2 234 235
2 202 236
2 236 237
2 182 238
2 246 239
2 232 240
2 256 241
2 178 242
2 242 243
2 174 244
2 258 245
2 238 246
2 246 247
2 172 248
2 248 249
2 212 250
2 250 251
2 222 252
2 252 253
2 224 254
2 254 255
2 240 256
2 256 257
2 244 258
2 258 259
CELL_DATA 259
SCALARS radius float
LOOKUP_TABLE default
0.126121
0.997745
0.124588
1.11345
0.109097
0.928768
0.137528
0.728839
0.146571
0.927992
0.116529
0.809834
0.132993
0.576986
0.12198
0.718843
0.135128
0.644766
0.153975
0.80851
0.113537
0.718005
0.133804
0.630499
0.139281
0.250467
0.232474
0.620947
0.124695
0.575043
0.147913
0.62917
0.125169
0.568795
0.131075
0.661219
0.130464
0.209446
0.197676
0.259139
0.239579
0.236471
0.219123
0.573207
0.181386
0.570962
0.140989
0.568502
0.189371
0.617832
0.144106
0.566242
0.119701
0.618906
0.130725
0.617215
0.191254
0.563891
0.139083
0.545881
0.197695
0.654139
0.144355
0.553201
0.127498
0.652404
0.128363
0.470257
0.1496
0.514816
0.185582
0.569905
0.201666
0.476788
0.186149
0.563714
0.134979
0.537097
0.144118
0.561409
0.127987
0.254907
0.238525
0.616115
0.149993
0.416911
0.148771
0.601213
0.131304
0.250447
0.231216
0.55843
0.14404
0.419496
0.204494
0.51265
0.170023
0.554976
0.149867
0.349952
0.181781
0.362463
0.183416
0.534503
0.156012
0.52353
0.170516
0.402698
0.169976
0.438854
0.14763
0.473666
0.195058
0.257211
0.241174
0.463882
0.196404
0.403039
0.207052
0.432055
0.193635
0.504412
0.187126
0.413004
0.182602
0.34247
0.208053
0.467112
0.157302
0.497738
0.208422
0.396165
0.21012
0.43669
0.203218
0.368907
0.172344
0.396418
0.203557
0.391953
0.186028
0.447513
0.164013
0.441763
0.196588
0.356113
0.191301
0.412032
0.217563
0.416116
0.179872
0.427846
0.185469
0.408674
0.219095
0.418136
0.18912
0.435195
0.222098
0.385714
0.193355
0.398743
0.216319
0.34357
0.224446
0.429457
0.170535
0.426643
0.225553
0.452088
0.216792
0.417181
0.196857
0.385276
0.181525
0.395567
0.251812
0.360905
0.253201
0.320685
0.278806
0.386978
0.220408
0.497889
0.235339
0.41291
0.201311
0.359669
0.233099
0.360471
0.273048
0.324468
0.293002
0.307311
0.277741
0.382146
0.256122
0.339094
0.317447
0.376338
0.270824
0.365807
0.258347
0.400108
0.20596
0.353098
0.28909
0.311307
0.289844
0.346829
0.277473
0.376741
0.252383
0.375866
0.268964
0.336595
0.29422
0.316787
0.293996
0.389133
0.265514
0.372878
0.238536
0.385497
0.265633
0.35028
0.286517
0.336448
0.302089
0.341538
0.284546
0.408666
0.246044
0.342582
0.317638
0.31651
0.290355
0.372082
0.277268
0.398518
0.231938
0.340219
0.284991
0.376329
0.253794
0.344276
0.269114
0.408553
0.276702
0.34324
0.289893
0.346649
0.303958
0.337796
0.310059
0.364422
0.329945
0.361689
0.314031
