# vtk DataFile Version 3.0
Tree
ASCII
DATASET POLYDATA
POINTS 260 float
0.058487 0.066685 0.008138
0.057536 0.067507 0.002531
0.0588957 0.0664484 0.00569829
0.06324 0.06341 0.001525
0.0584002 0.0669823 0.00336664
0.057979 0.06822 -0.004848
0.0586096 0.066614 0.00740609
0.051267 0.073755 0.002665
0.0619391 0.0643917 0.00200719
0.064809 0.062826 -0.005464
0.0623294 0.0640972 0.00186253
0.068352 0.059966 0.003312
0.0567019 0.0691751 -0.000957612
0.052696 0.073753 -0.005036
0.0553732 0.0709419 -0.00455089
0.05539 0.071561 -0.010295
0.0647906 0.0626887 -0.00168816
0.068843 0.060099 -0.002652
0.0523371 0.0735151 0.00325378
0.048795 0.079019 0.000704
0.0577051 0.0684718 -0.00381576
0.060675 0.066539 -0.011647
0.0664805 0.0616614 -0.00276234
0.069046 0.060345 -0.007502
0.0674588 0.0607689 0.00203421
0.072045 0.058112 0.000405
0.0648919 0.0627547 -0.00449774
0.065468 0.062817 -0.012317
0.054887 0.0718285 -0.0068994
0.051868 0.076081 -0.010248
0.0590801 0.0678435 -0.009967
0.058373 0.068989 -0.014597
0.053421 0.0733097 -0.0049975
0.049652 0.079221 -0.006251
0.0537357 0.0736901 -0.0100233
0.053363 0.074832 -0.015186
0.0494975 0.0786687 0.00181169
0.047256 0.084058 0.001746
0.0682034 0.0608571 -0.00427524
0.073839 0.058455 -0.004428
0.071424 0.0590333 0.00169508
0.076379 0.057607 0.002685
0.0691821 0.060414 -0.00652539
0.072606 0.059265 -0.010437
0.0595188 0.0677358 -0.0130197
0.061253 0.066477 -0.016901
0.0651754 0.0630045 -0.0117561
0.064917 0.06354 -0.017016
0.0657683 0.0625948 -0.0103409
0.069957 0.06056 -0.015646
0.0501993 0.0788579 -0.00602044
0.048376 0.082991 -0.006502
0.0479621 0.0829578 0.000767141
0.047216 0.086288 -0.001825
0.0532132 0.0747467 -0.0120427
0.050722 0.079035 -0.014491
0.0509531 0.077732 -0.00652077
0.04937 0.081516 -0.011567
0.0519514 0.0770554 -0.0144357
0.051554 0.078091 -0.017791
0.0473829 0.0854867 0.000143868
0.046533 0.089135 0.000763
0.0519082 0.0774243 -0.0168045
0.052863 0.07651 -0.02105
0.0530836 0.0760601 -0.0194719
0.055015 0.073597 -0.021479
0.0538378 0.0742252 -0.0142844
0.057386 0.070857 -0.021993
0.0698565 0.0609191 -0.0145252
0.074385 0.059517 -0.017706
0.0732939 0.0594111 -0.00401942
0.079943 0.058438 -0.003187
0.0576333 0.0705357 -0.020441
0.059749 0.068408 -0.022152
0.0682172 0.0616204 -0.0139788
0.068368 0.061739 -0.021083
0.0771898 0.0589266 -0.00476681
0.079609 0.058793 -0.00764
0.0488785 0.0822562 -0.00637111
0.047407 0.088075 -0.006771
0.0789194 0.0587467 -0.00333554
0.082661 0.058863 0.001507
0.0470401 0.0885969 0.000586187
0.04713 0.092425 0.001016
0.0495745 0.0814302 -0.0101163
0.048291 0.085534 -0.012153
0.0784922 0.0588912 -0.00699309
0.079062 0.059084 -0.011844
0.0512306 0.0784728 -0.0147234
0.049174 0.083362 -0.016384
0.0594169 0.0688006 -0.0217592
0.062666 0.065893 -0.023624
0.0537079 0.0753516 -0.0208326
0.053818 0.07575 -0.02532
0.0694898 0.0612716 -0.0185118
0.07259 0.060239 -0.022049
0.0823437 0.0591957 0.00087231
0.084735 0.060151 0.003391
0.0518019 0.0776243 -0.0171004
0.050024 0.081835 -0.020203
0.0738437 0.0600336 -0.015972
0.078921 0.059359 -0.016057
0.0510412 0.0796624 -0.0199882
0.051117 0.080091 -0.023868
0.0744608 0.0598319 -0.0171183
0.077208 0.059589 -0.020816
0.0544358 0.0747205 -0.0234065
0.056213 0.072756 -0.026179
0.0686061 0.0617466 -0.02028
0.065982 0.063496 -0.024714
0.0513936 0.0794959 -0.0232109
0.052213 0.078578 -0.027064
0.0472851 0.0911618 -5.66302e-05
0.047838 0.094476 -0.002078
0.0584419 0.0698189 -0.0217709
0.05895 0.069753 -0.026645
0.0474872 0.0925528 -0.00207262
0.047533 0.093289 -0.005524
0.0473889 0.0920983 0.000662308
0.048326 0.095415 0.00301
0.0478927 0.0872126 -0.007254
0.04746 0.091645 -0.008953
0.0812724 0.0592383 -0.00133947
0.085209 0.060879 -0.002002
0.0681416 0.0621564 -0.0222366
0.070349 0.0613 -0.025704
0.0594591 0.069104 -0.0248939
0.061494 0.067341 -0.027354
0.0718579 0.0606394 -0.0216385
0.074404 0.060194 -0.025636
0.0549522 0.0742488 -0.0249382
0.054697 0.07514 -0.029
0.0781015 0.0589018 -0.0063252
0.084636 0.060858 -0.007681
0.0476972 0.0895976 -0.00923492
0.047689 0.090665 -0.012387
0.0823406 0.0601589 -0.00817506
0.083906 0.060597 -0.010995
0.0497268 0.0824647 -0.0156685
0.047981 0.089176 -0.015425
0.0830788 0.0603845 -0.0107443
0.083188 0.060464 -0.014128
0.074441 0.0603694 -0.0234618
0.078901 0.060057 -0.024724
0.0490365 0.0851653 -0.0169523
0.048758 0.086357 -0.020462
0.084242 0.0606466 -0.000970908
0.087379 0.062393 0.000734
0.0509713 0.0802115 -0.021703
0.049661 0.084001 -0.02418
0.0837557 0.0606738 -0.00756939
0.08671 0.062089 -0.005084
0.0477696 0.0937349 -0.00231983
0.048828 0.097287 -0.003828
0.047982 0.0939703 0.00124504
0.049818 0.099073 0.000297
0.0830432 0.0604429 -0.0134578
0.082858 0.060525 -0.017535
0.0503332 0.082266 -0.0240281
0.05019 0.083218 -0.027176
0.0865733 0.0620809 0.000787597
0.088983 0.063773 0.003361
0.0686434 0.0620613 -0.0241814
0.067469 0.063129 -0.029441
0.0516503 0.0795999 -0.0261786
0.051608 0.080654 -0.030507
0.0765253 0.0598428 -0.0189219
0.082339 0.060517 -0.020757
0.0477294 0.0936673 -0.0046631
0.048313 0.095902 -0.008366
0.0553728 0.0741924 -0.0280879
0.056746 0.073029 -0.031545
0.0669336 0.0634336 -0.0275976
0.063879 0.065742 -0.030371
0.04854 0.0874404 -0.0171316
0.048168 0.089853 -0.018902
0.0521648 0.079275 -0.0289146
0.053524 0.077536 -0.03224
0.0694012 0.0617861 -0.0253143
0.070767 0.061564 -0.029337
0.0499462 0.0834601 -0.0240288
0.048865 0.087449 -0.02374
0.0593243 0.0694119 -0.0263382
0.059478 0.070052 -0.031833
0.0710797 0.0614384 -0.0278464
0.073835 0.060798 -0.02976
0.050298 0.0830242 -0.0267535
0.050371 0.083886 -0.030164
0.0857283 0.0616006 -0.000589664
0.08903 0.063875 -0.002644
0.0763839 0.060284 -0.0251715
0.077557 0.060332 -0.028486
0.0483746 0.088859 -0.0175332
0.048076 0.09292 -0.016586
0.0601048 0.0691467 -0.0297616
0.061936 0.067733 -0.032285
0.0805881 0.0604256 -0.0211257
0.08273 0.060961 -0.024171
0.0481386 0.0951631 -0.00814735
0.048357 0.095817 -0.011817
0.055717 0.0741889 -0.0306015
0.055425 0.075177 -0.034102
0.0851737 0.0614251 -0.00708868
0.088187 0.063311 -0.008929
0.0778765 0.0604117 -0.0268038
0.080709 0.060699 -0.02816
0.0497943 0.0984475 0.000483975
0.051379 0.102079 -9.3e-05
0.0833269 0.0604483 -0.0108195
0.087563 0.062882 -0.012206
0.0488065 0.0967831 -0.00345965
0.050263 0.100562 -0.004667
0.0494733 0.0855637 -0.0248485
0.049184 0.087554 -0.027204
0.0506223 0.100221 0.00114099
0.051393 0.101667 0.003325
0.0852657 0.0615867 -0.0126809
0.08662 0.062428 -0.016279
0.0493821 0.0983962 -0.00489667
0.049614 0.099305 -0.007557
0.0519515 0.0799639 -0.0301483
0.052033 0.080748 -0.033746
0.0871875 0.0627729 -0.00723729
0.089783 0.064622 -0.006042
0.0659872 0.0642862 -0.0298123
0.066172 0.0645 -0.03313
0.0483117 0.0896498 -0.0182998
0.048324 0.092591 -0.020369
0.0559169 0.0742271 -0.0321585
0.057708 0.072556 -0.034972
0.0885074 0.0636744 -0.00151397
0.090937 0.065758 -0.000956
0.0674442 0.063236 -0.0288456
0.069548 0.06261 -0.032957
0.0483758 0.0907035 -0.0201287
0.04853 0.090892 -0.023058
0.059899 0.0695641 -0.0312081
0.060202 0.069865 -0.034915
0.0860102 0.0620859 -0.0157946
0.086377 0.062408 -0.019689
0.073129 0.0611463 -0.0296044
0.076037 0.060944 -0.032485
0.0501273 0.0843975 -0.0284875
0.049626 0.08719 -0.030023
0.0616028 0.0680787 -0.0320689
0.063362 0.066948 -0.035118
0.0900502 0.0650441 -0.000743448
0.092065 0.067058 0.002276
0.0484147 0.095957 -0.00951247
0.04969 0.099573 -0.010821
0.0517173 0.0812665 -0.0324511
0.051022 0.08372 -0.034261
0.0894385 0.0644955 -0.00159583
0.091301 0.066115 -0.004025
0.0788782 0.0605674 -0.0278071
0.079569 0.06097 -0.031355
0.048404 0.092401 -0.0166043
0.048821 0.096868 -0.015298
0.0520664 0.0802613 -0.0317968
0.053358 0.078832 -0.036166
LINES 259 777
2 4 1
2 6 2
2 10 3
2 2 4
2 20 5
2 0 6
2 18 7
2 2 8
2 26 9
2 8 10
2 24 11
2 4 12
2 32 13
2 12 14
2 28 15
2 8 16
2 22 17
2 6 18
2 36 19
2 12 20
2 30 21
2 16 22
2 42 23
2 10 24
2 40 25
2 16 26
2 46 27
2 14 28
2 34 29
2 20 30
2 44 31
2 14 32
2 50 33
2 28 34
2 66 35
2 18 36
2 52 37
2 22 38
2 70 39
2 24 40
2 40 41
2 38 42
2 42 43
2 30 44
2 44 45
2 48 46
2 46 47
2 26 48
2 68 49
2 56 50
2 78 51
2 36 52
2 60 53
2 34 54
2 88 55
2 32 56
2 84 57
2 54 58
2 98 59
2 52 60
2 82 61
2 58 62
2 64 63
2 62 64
2 92 65
2 54 66
2 72 67
2 74 68
2 104 69
2 38 70
2 80 71
2 66 72
2 90 73
2 48 74
2 108 75
2 70 76
2 86 77
2 50 78
2 120 79
2 76 80
2 96 81
2 60 82
2 118 83
2 56 84
2 84 85
2 132 86
2 86 87
2 58 88
2 138 89
2 114 90
2 90 91
2 64 92
2 106 93
2 74 94
2 128 95
2 122 96
2 96 97
2 62 98
2 102 99
2 68 100
2 100 101
2 98 102
2 110 103
2 100 104
2 166 105
2 92 106
2 130 107
2 94 108
2 124 109
2 148 110
2 164 111
2 82 112
2 152 113
2 72 114
2 182 115
2 112 116
2 168 117
2 112 118
2 154 119
2 78 120
2 134 121
2 80 122
2 146 123
2 108 124
2 178 125
2 114 126
2 126 127
2 94 128
2 142 129
2 106 130
2 170 131
2 76 132
2 150 133
2 120 134
2 134 135
2 132 136
2 208 137
2 88 138
2 174 139
2 136 140
2 156 141
2 128 142
2 190 143
2 138 144
2 144 145
2 122 146
2 160 147
2 102 148
2 180 149
2 136 150
2 202 151
2 116 152
2 210 153
2 118 154
2 206 155
2 140 156
2 156 157
2 148 158
2 186 159
2 188 160
2 160 161
2 124 162
2 232 163
2 110 164
2 220 165
2 104 166
2 196 167
2 116 168
2 198 169
2 130 170
2 200 171
2 162 172
2 224 173
2 144 174
2 226 175
2 164 176
2 176 177
2 162 178
2 184 179
2 158 180
2 212 181
2 126 182
2 236 183
2 178 184
2 240 185
2 158 186
2 242 187
2 146 188
2 230 189
2 142 190
2 204 191
2 174 192
2 256 193
2 182 194
2 244 195
2 166 196
2 196 197
2 168 198
2 248 199
2 170 200
2 228 201
2 150 202
2 222 203
2 190 204
2 254 205
2 154 206
2 214 207
2 140 208
2 216 209
2 152 210
2 218 211
2 180 212
2 212 213
2 206 214
2 214 215
2 208 216
2 238 217
2 210 218
2 218 219
2 176 220
2 250 221
2 202 222
2 222 223
2 172 224
2 224 225
2 192 226
2 234 227
2 200 228
2 228 229
2 188 230
2 246 231
2 172 232
2 232 233
2 226 234
2 234 235
2 194 236
2 236 237
2 216 238
2 238 239
2 184 240
2 240 241
2 186 242
2 242 243
2 194 244
2 244 245
2 252 246
2 246 247
2 198 248
2 248 249
2 258 250
2 250 251
2 230 252
2 252 253
2 204 254
2 254 255
2 192 256
2 256 257
2 220 258
2 258 259
CELL_DATA 259
SCALARS radius float
LOOKUP_TABLE default
0.122416
1.05847
0.122516
0.844514
0.128006
1.11365
0.127922
0.835655
0.120627
0.30145
0.157603
0.843656
0.120333
0.828021
0.166176
0.822369
0.157171
0.580178
0.138162
0.320001
0.188461
0.649796
0.140035
0.294548
0.186665
0.655607
0.126147
0.788419
0.165194
0.313023
0.208994
0.426577
0.128572
0.78595
0.136532
0.578098
0.152193
0.646716
0.134795
0.278666
0.247362
0.2318
0.213332
0.288359
0.245789
0.226217
0.212303
0.654243
0.143023
0.377006
0.149906
0.575455
0.168108
0.78351
0.126805
0.423361
0.186882
0.713288
0.13047
0.571885
0.135704
0.641531
0.161357
0.451988
0.18055
0.490598
0.165962
0.402866
0.141601
0.636634
0.142438
0.487047
0.150019
0.645101
0.138235
0.634613
0.154987
0.371954
0.186941
0.489715
0.163788
0.567001
0.134471
0.281456
0.250767
0.239909
0.216055
0.462415
0.153726
0.264073
0.246833
0.445026
0.191322
0.587787
0.149018
0.262975
0.239817
0.555798
0.176869
0.396766
0.226429
0.553391
0.148513
0.370481
0.202882
0.434891
0.200898
0.501575
0.205411
0.451039
0.178109
0.564398
0.156692
0.480537
0.150193
0.486828
0.171899
0.400846
0.203767
0.363654
0.257908
0.485665
0.173174
0.49805
0.168247
0.452332
0.226916
0.425232
0.199713
0.422181
0.198362
0.516934
0.15588
0.346379
0.290054
0.499102
0.144954
0.459215
0.205955
0.429296
0.174405
0.419042
0.226224
0.453399
0.213991
0.45847
0.179511
0.547302
0.150802
0.356243
0.216698
0.374084
0.171679
0.395737
0.180859
0.294401
0.272395
0.416364
0.150898
0.287275
0.261702
0.48612
0.169561
0.445607
0.177318
0.363454
0.243586
0.397969
0.191296
0.406437
0.232028
0.39861
0.253862
0.436918
0.163851
0.435913
0.247295
0.372151
0.204649
0.322148
0.236698
0.432434
0.208419
0.360316
0.205583
0.33839
0.23955
0.450081
0.198881
0.40334
0.22621
0.421097
0.185156
0.426308
0.199303
0.341026
0.29321
0.386978
0.272272
0.390034
0.266435
0.346003
0.233024
0.378067
0.252191
0.376841
0.282238
0.377043
0.230892
0.364686
0.272494
0.310733
0.255818
0.362409
0.292854
0.369762
0.209688
0.351536
0.285243
0.407582
0.236886
0.31497
0.264925
0.32998
0.269483
0.339834
0.244461
0.36048
0.303403
0.407095
0.222636
0.301491
0.282434
0.326631
0.272515
0.328377
0.297596
0.336921
0.307324
0.33681
0.309054
0.328077
0.278349
0.347789
0.324439
0.341374
0.306336
0.370723
0.313347
0.333808
0.288059
0.390615
0.270613
0.348877
0.297852
0.328421
0.3075
0.396073
0.29216
