# vtk DataFile Version 3.0
Tree
ASCII
DATASET POLYDATA
POINTS 400 float
-0.004 0.02 0.0265
0.0065 0.01 0.026302
0.00461 0.0117065 0.0248517
0.00725 0.009063 0.02275
0.00651684 0.00919274 0.0236607
0.008403 0.00575 0.023
0.002251 0.0141968 0.0248625
0.004365 0.0135 0.02175
0.00798227 0.00671168 0.0225814
0.009056 0.00525 0.02075
0.00810849 0.00642317 0.022707
0.00825 0.001955 0.02325
0.00673679 0.00915382 0.0233875
0.00752 0.0095 0.0185
-0.00021699 0.0164905 0.0249999
0.00025 0.016072 0.02175
0.00362524 0.0136039 0.0222794
0.004366 0.0125 0.01775
0.00841472 0.00318742 0.0224062
0.009 0.00125 0.020857
0.00849278 0.00625239 0.0212705
0.009558 0.00625 0.01675
-0.00165453 0.0178241 0.0255699
-0.00225 0.017068 0.022
0.000121553 0.0160064 0.0222925
0.0005 0.014557 0.0175
0.00741777 0.00917922 0.019084
0.00805 0.00875 0.015
-0.000373534 0.0157967 0.0203604
-0.001971 0.0165 0.0195
0.000660746 0.0146169 0.0180842
0.002322 0.013 0.0155
0.00431722 0.0124045 0.0184418
0.00525 0.010582 0.01375
0.00859651 0.00171308 0.0216513
0.00825 -0.0025 0.020887
0.00899938 0.00551641 0.0194171
0.010057 0.001 0.01675
0.00942436 0.00600444 0.0172285
0.01 0.00633 0.0135
0.00828742 -0.000329282 0.0219488
0.007057 -0.00475 0.02525
-0.00292181 0.0173682 0.023008
-0.0055 0.01706 0.0205
-0.00124256 0.0159451 0.0196125
-0.0035 0.0155 0.016678
0.00094678 0.013989 0.0167605
-0.0005 0.01325 0.013613
0.0008086 0.013511 0.0152783
0.00275 0.012 0.012244
-0.00329636 0.0193472 0.026221
-0.008582 0.01475 0.02325
0.00837548 -0.00139293 0.0210943
0.00901 -0.0025 0.0185
0.00994396 0.00279525 0.0169735
0.010862 0.00225 0.0145
0.00949968 0.00669342 0.0142031
0.008871 0.008 0.01175
0.00523151 0.011023 0.0143414
0.00625 0.010074 0.0105
-0.00773401 0.0148733 0.023823
-0.010084 0.01125 0.02275
0.00830772 -0.00199075 0.0209824
0.00757 -0.0055 0.02025
-0.00488873 0.0167512 0.0206632
-0.007 0.015517 0.0175
0.0100173 0.0017792 0.0165457
0.01025 -0.001 0.014349
0.00968714 0.00598508 0.0151256
0.01107 0.00375 0.0115
0.0052826 0.0107829 0.0119094
0.00425 0.01125 0.010046
0.00736477 -0.00393373 0.0235636
0.00675 -0.006887 0.023
-0.00872248 0.0137732 0.0227051
-0.00925 0.01405 0.02075
0.00818451 -0.00363552 0.0199015
0.0085 -0.004857 0.01775
-0.00340762 0.0153817 0.0171472
-0.00575 0.014569 0.015
-0.000322302 0.0134052 0.0141383
-0.00325 0.013557 0.01225
0.00134344 0.0127601 0.0128994
0.0005 0.012556 0.01025
0.00950288 0.00730284 0.0121575
0.01005 0.00775 0.009
-0.00989695 0.0117611 0.022776
-0.01175 0.00875 0.02292
-0.0109116 0.00967445 0.0221848
-0.011403 0.00775 0.0205
-0.00914877 0.0135129 0.0216585
-0.01075 0.01138 0.019
-0.00959921 0.0129974 0.0197161
-0.009385 0.0135 0.017
0.00987693 -0.000740921 0.01527
0.00925 -0.004045 0.0145
0.0100945 0.000411459 0.0153266
0.011 -0.00025 0.011756
0.0106308 0.00488523 0.0120302
0.011082 0.00525 0.00925
0.00603663 0.0104252 0.0109076
0.00825 0.01 0.008277
0.00689847 -0.00578165 0.0236024
0.005571 -0.00975 0.02525
-0.0111967 0.00843043 0.0216734
-0.012 0.0045 0.021781
0.00781116 -0.00493412 0.0199323
0.007054 -0.00825 0.01925
0.00756248 -0.00637838 0.0189475
0.007572 -0.00725 0.017
-0.00917002 0.0132699 0.0175337
-0.00825 0.01354 0.01425
-0.00481278 0.0147767 0.0154333
-0.00625 0.013556 0.0115
-0.0016347 0.013345 0.0123164
-0.0025 0.01306 0.00925
0.00126013 0.0126522 0.0112512
0.002857 0.0125 0.00775
0.00662758 0.0106367 0.00918212
0.00625 0.011545 0.007
0.00632831 -0.00800843 0.0235492
0.006 -0.010333 0.022
-0.0117487 0.00609121 0.0210293
-0.01225 0.004568 0.01925
-0.0104302 0.0117423 0.0191023
-0.012 0.009 0.017531
-0.00957643 0.0129725 0.0180128
-0.011 0.011827 0.0155
0.00938874 -0.00332509 0.0141864
0.009029 -0.00525 0.0125
0.0104278 -0.000623256 0.0127626
0.01025 -0.002528 0.01025
0.0104677 -0.000945281 0.0114874
0.011056 0.00075 0.0085
0.00122054 0.012729 0.00929058
-0.00025 0.013057 0.00725
0.0100977 0.00729114 0.009493
0.011002 0.00675 0.00625
0.00579143 -0.00940405 0.0240836
0.00506 -0.0115 0.024
-0.0119319 0.00484381 0.0213331
-0.012573 0.00025 0.02175
0.00709449 -0.00787493 0.0190741
0.006072 -0.01025 0.01875
-0.0114947 0.00716725 0.0213256
-0.01275 0.0065 0.01688
0.00762859 -0.00695571 0.0173316
0.008 -0.007327 0.0145
-0.00910801 0.0130529 0.0150735
-0.01 0.012186 0.0125
-0.00569507 0.0138492 0.011884
-0.0055 0.013557 0.0095
0.0108484 0.00471397 0.0103529
0.011057 0.00275 0.007
0.0103762 0.00752645 0.0073372
0.010059 0.00875 0.0055
0.00676621 0.0109328 0.00800745
0.008346 0.011 0.005
0.00589506 -0.0100696 0.0222857
0.00525 -0.012049 0.02125
-0.0123848 0.00287503 0.0207407
-0.013 0.00175 0.01886
0.00761161 -0.007044 0.0172321
0.0065 -0.009827 0.01625
-0.0115821 0.00997455 0.0173808
-0.01275 0.008563 0.01475
-0.0105967 0.0119692 0.0159362
-0.012 0.010371 0.01275
-0.00915184 0.0127919 0.0131053
-0.0085 0.012864 0.01025
0.010548 -0.000763735 0.00978135
0.01025 -0.00175 0.007955
-0.00257388 0.0133132 0.00970655
-0.004 0.013557 0.0065
-0.00279955 0.0134595 0.00743262
-0.00175 0.013557 0.00525
0.00693082 0.0113877 0.0063117
0.006 0.0125 0.004529
0.00184151 0.0127155 0.00816894
0.0025 0.013074 0.00425
-0.0128273 0.000740012 0.0215333
-0.01375 -0.00175 0.022418
-0.0127238 0.00124367 0.0209712
-0.013194 -0.001 0.0195
0.00620127 -0.00971997 0.0183896
0.005073 -0.01175 0.017
-0.0124809 0.0058569 0.0183418
-0.013582 0.00325 0.01575
0.00676432 -0.00883224 0.0160129
0.005856 -0.01025 0.014
0.00754735 -0.00750692 0.0150026
0.006914 -0.0085 0.01225
0.00902478 -0.00478104 0.0125446
0.0085 -0.006325 0.01025
0.0102036 -0.00210671 0.0105371
0.00925 -0.00438 0.0085
-0.00587948 0.0136631 0.0104144
-0.0075 0.01325 0.007347
0.0104608 -0.000927024 0.00868885
0.0105 -2.8e-05 0.0055
0.0108336 0.00381559 0.00757116
0.010557 0.00375 0.00425
0.00172928 0.0130945 0.00529406
0.0005 0.013557 0.0035
0.0102379 0.00785311 0.00623003
0.01 0.0075 0.002972
0.00522611 -0.0110187 0.0239756
0.004 -0.0145 0.023569
-0.0130699 -0.00062304 0.0204862
-0.013557 -0.0035 0.0205
-0.0128897 0.00182876 0.0193347
-0.01375 -0.0005 0.017549
0.00590965 -0.0101362 0.0150851
0.00475 -0.011869 0.015
-0.0131853 0.00520131 0.0165041
-0.014053 0.00575 0.014
-0.0126563 0.00882318 0.0149619
-0.01375 0.007879 0.0125
-0.0114109 0.0110249 0.0131396
-0.0115 0.01088 0.0105
-0.00925074 0.012607 0.0109721
-0.01025 0.012049 0.00875
0.0102694 -0.0014841 0.00818427
0.0095 -0.003319 0.0065
-0.00365881 0.0135151 0.00665603
-0.00525 0.013557 0.00475
0.0105058 0.00321099 0.00503277
0.010058 0.00175 0.00325
0.00982777 0.00827124 0.00414305
0.009045 0.00975 0.0025
0.00742761 0.0113052 0.0053539
0.00775 0.011546 0.002
-0.0134862 -0.00283922 0.0209411
-0.014 -0.00525 0.022095
0.00531738 -0.0115483 0.0215554
0.00375 -0.014552 0.02025
-0.0133556 -0.00176648 0.0202973
-0.01407 -0.00325 0.018
-0.0135459 0.000641504 0.0177072
-0.01425 0.00025 0.015563
-0.0135514 0.00387906 0.0157943
-0.014582 0.00175 0.01375
0.00569781 -0.0103394 0.0143952
0.0045 -0.011368 0.01225
0.00537063 -0.0104212 0.0128597
0.005556 -0.00975 0.01075
0.00828991 -0.00624642 0.01088
0.007 -0.00825 0.009222
0.00790105 -0.00680384 0.00995913
0.008 -0.006364 0.0075
-0.00960038 0.0124071 0.00949828
-0.00925 0.012574 0.006
0.0101343 -0.000952649 0.00642554
0.00925 -0.002046 0.00425
-0.00237982 0.013518 0.00549305
-0.0025 0.013557 0.003
0.0103141 0.00289114 0.00409183
0.01 0.003744 0.00175
0.00708344 0.0118568 0.00320156
0.00583 0.013 0.0015
0.00211528 0.0131807 0.00446406
0.003 0.01375 0.001379
0.00411236 -0.0137618 0.0241698
0.003 -0.015842 0.02525
-0.0138107 -0.00449569 0.0211168
-0.014058 -0.006 0.02025
0.00397156 -0.0137314 0.0200377
0.00275 -0.015054 0.018
0.00495663 -0.0115393 0.0153209
0.0035 -0.013662 0.016
0.00398918 -0.0125644 0.015114
0.00275 -0.013381 0.014
-0.0141344 0.00333195 0.0143989
-0.01475 0.00375 0.012563
-0.0137844 0.00548663 0.014432
-0.014581 0.00575 0.01125
-0.0133979 0.00829055 0.0127847
-0.014055 0.008 0.01
-0.0118144 0.0107056 0.0109958
-0.01275 0.01005 0.0085
-0.0100622 0.0121232 0.00795917
-0.01155 0.01125 0.007
0.00945775 -0.00306356 0.00682371
0.00825 -0.005028 0.00525
-0.00518763 0.0135209 0.00552489
-0.007755 0.0135 0.00425
0.00960373 -0.00117578 0.00466186
0.00925 -0.0005 0.002613
0.000740056 0.0134733 0.00380115
-0.00075 0.014051 0.0015
0.00982866 0.00778003 0.00335184
0.009502 0.00625 0.00075
0.00940092 0.00754442 0.00185888
0.008581 0.00825 0.00025
0.00735673 0.0115479 0.00242248
0.00775 0.01025 -4.6e-05
0.00352637 -0.0148118 0.0243327
0.002072 -0.01725 0.02325
0.00386964 -0.0141089 0.0201354
0.0025 -0.016772 0.02075
-0.0137758 -0.0029134 0.0192066
-0.014571 -0.00625 0.01825
-0.0143226 -0.00415843 0.0181492
-0.015047 -0.0045 0.01625
-0.0139475 9.59876e-05 0.0167143
-0.015057 -0.0025 0.01475
-0.0145292 -0.000693926 0.0152728
-0.015074 -0.0005 0.01325
0.00467088 -0.0110786 0.012491
0.002549 -0.01275 0.01175
-0.0144497 0.00501465 0.0122699
-0.01525 0.0035 0.010347
0.00396905 -0.0115959 0.0118372
0.00375 -0.01155 0.00925
0.00543345 -0.0100801 0.0112722
0.00525 -0.010046 0.008
0.00773162 -0.00689063 0.00884589
0.0065 -0.008272 0.00675
0.00713265 -0.00733473 0.00716835
0.007 -0.006898 0.00525
-0.00977985 0.012357 0.0063104
-0.00975 0.012572 0.00375
0.00868972 -0.00381487 0.00530538
0.00775 -0.004063 0.00275
-0.00307231 0.0135383 0.00384666
-0.00475 0.013557 0.00175
0.0100533 0.00289165 0.00299168
0.009057 0.00125 0.00075
0.00215611 0.013608 0.0022269
0.00125 0.014056 -0
0.00271211 0.0136393 0.0016162
0.0045 0.013558 -0.0005
0.00722775 0.011293 0.000871751
0.006559 0.01175 -0.001
0.00260994 -0.0162591 0.0243997
0.0015 -0.017891 0.0255
-0.0139842 -0.00556745 0.0211114
-0.014573 -0.00925 0.02275
-0.0142865 -0.00727238 0.0211935
-0.014559 -0.0085 0.02
0.00284635 -0.014964 0.0190624
0.001 -0.017 0.018301
0.00215935 -0.0155888 0.0184702
0.0015 -0.0155 0.016301
0.00316612 -0.0131525 0.0147273
0.0005 -0.01519 0.0145
0.00156645 -0.014142 0.0141009
0.0005 -0.014358 0.01275
-0.0144901 0.00241679 0.0137659
-0.015556 0.00075 0.0115
0.00336514 -0.0119422 0.0106318
0.002 -0.012872 0.00975
-0.0145622 0.00532692 0.0115018
-0.015 0.005827 0.00875
-0.0146149 0.00610997 0.00950071
-0.01425 0.007552 0.0075
-0.0111482 0.0113875 0.00730744
-0.01325 0.00955 0.00625
0.0066452 -0.00789093 0.00678683
0.004871 -0.0095 0.00525
-0.011835 0.0108889 0.00659389
-0.012 0.01137 0.00425
0.00812943 -0.00426646 0.00429267
0.0065 -0.006562 0.003
-0.00658665 0.0135238 0.00412996
-0.00725 0.013555 0.002
0.00929182 -0.00114371 0.003596
0.008058 -0.00225 0.001
-0.00341439 0.0136721 0.0023364
-0.002856 0.014 0.00025
0.00963683 0.00256774 0.00186259
0.009 0.003744 -0.00075
0.00111996 0.0139171 0.000362609
-0.00025 0.014072 -0.00125
0.00930544 0.00697871 0.00105424
0.008524 0.006 -0.00175
0.00881722 0.00796592 0.00062682
0.00775 0.008388 -0.002
0.00694192 0.0113069 -0.000255407
0.006858 0.01025 -0.0025
0.00215323 -0.0170426 0.0236044
0.001 -0.018812 0.02225
0.00152127 -0.0164721 0.0186252
0.0005 -0.01837 0.02
-0.0145115 -0.00800712 0.0202332
-0.015057 -0.00875 0.018
0.00160901 -0.0157648 0.0176087
-0.0005 -0.017017 0.0165
-0.0147488 -0.0046408 0.0170786
-0.015556 -0.00675 0.01525
-0.0151685 -0.00524758 0.0157077
-0.015556 -0.005 0.01375
-0.0148577 -0.0016489 0.0147017
-0.015556 -0.003 0.0125
0.000888572 -0.0142229 0.0130509
0 -0.014056 0.01075
-0.0151296 0.000786718 0.0119864
-0.015556 -0.0015 0.01
-0.0153044 0.000199164 0.011032
-0.015556 0.001 0.009
LINES 399 1197
2 2 1
2 6 2
2 12 3
2 2 4
2 10 5
2 14 6
2 16 7
2 4 8
2 20 9
2 8 10
2 18 11
2 4 12
2 26 13
2 22 14
2 24 15
2 6 16
2 32 17
2 10 18
2 34 19
2 8 20
2 38 21
2 50 22
2 42 23
2 14 24
2 30 25
2 12 26
2 26 27
2 24 28
2 44 29
2 28 30
2 46 31
2 16 32
2 58 33
2 18 34
2 62 35
2 20 36
2 66 37
2 36 38
2 56 39
2 34 40
2 72 41
2 22 42
2 64 43
2 28 44
2 78 45
2 30 46
2 80 47
2 46 48
2 82 49
2 0 50
2 60 51
2 40 52
2 52 53
2 36 54
2 54 55
2 68 56
2 84 57
2 32 58
2 100 59
2 50 60
2 86 61
2 52 62
2 106 63
2 42 64
2 64 65
2 54 66
2 94 67
2 38 68
2 98 69
2 58 70
2 70 71
2 40 72
2 102 73
2 60 74
2 90 75
2 62 76
2 76 77
2 44 78
2 112 79
2 48 80
2 114 81
2 48 82
2 116 83
2 56 84
2 136 85
2 74 86
2 88 87
2 86 88
2 104 89
2 74 90
2 124 91
2 90 92
2 110 93
2 96 94
2 128 95
2 66 96
2 130 97
2 68 98
2 152 99
2 70 100
2 118 101
2 72 102
2 138 103
2 88 104
2 140 105
2 76 106
2 142 107
2 106 108
2 162 109
2 126 110
2 148 111
2 78 112
2 150 113
2 80 114
2 172 115
2 82 116
2 178 117
2 100 118
2 156 119
2 102 120
2 158 121
2 144 122
2 122 123
2 92 124
2 164 125
2 92 126
2 166 127
2 94 128
2 192 129
2 96 130
2 194 131
2 130 132
2 170 133
2 116 134
2 134 135
2 84 136
2 154 137
2 120 138
2 206 139
2 122 140
2 180 141
2 108 142
2 184 143
2 104 144
2 186 145
2 108 146
2 190 147
2 110 148
2 168 149
2 112 150
2 196 151
2 98 152
2 200 153
2 136 154
2 204 155
2 118 156
2 230 157
2 120 158
2 234 159
2 140 160
2 210 161
2 146 162
2 188 163
2 124 164
2 216 165
2 126 166
2 218 167
2 148 168
2 220 169
2 132 170
2 222 171
2 114 172
2 224 173
2 172 174
2 254 175
2 156 176
2 176 177
2 134 178
2 260 179
2 182 180
2 180 181
2 160 182
2 208 183
2 142 184
2 184 185
2 144 186
2 240 187
2 162 188
2 242 189
2 146 190
2 190 191
2 128 192
2 246 193
2 132 194
2 194 195
2 150 196
2 196 197
2 170 198
2 252 199
2 152 200
2 226 201
2 178 202
2 288 203
2 154 204
2 290 205
2 138 206
2 262 207
2 182 208
2 232 209
2 160 210
2 238 211
2 188 212
2 268 213
2 186 214
2 274 215
2 164 216
2 276 217
2 166 218
2 278 219
2 168 220
2 250 221
2 198 222
2 282 223
2 174 224
2 284 225
2 200 226
2 256 227
2 204 228
2 228 229
2 176 230
2 294 231
2 236 232
2 264 233
2 158 234
2 298 235
2 208 236
2 300 237
2 210 238
2 304 239
2 214 240
2 348 241
2 212 242
2 308 243
2 242 244
2 314 245
2 192 246
2 248 247
2 246 248
2 316 249
2 220 250
2 320 251
2 198 252
2 286 253
2 174 254
2 324 255
2 226 256
2 326 257
2 230 258
2 258 259
2 202 260
2 330 261
2 206 262
2 296 263
2 232 264
2 336 265
2 234 266
2 340 267
2 212 268
2 270 269
2 268 270
2 344 271
2 240 272
2 272 273
2 214 274
2 352 275
2 216 276
2 276 277
2 218 278
2 278 279
2 250 280
2 356 281
2 222 282
2 322 283
2 224 284
2 364 285
2 252 286
2 366 287
2 202 288
2 288 289
2 228 290
2 374 291
2 290 292
2 376 293
2 258 294
2 332 295
2 262 296
2 380 297
2 266 298
2 298 299
2 236 300
2 302 301
2 300 302
2 388 303
2 238 304
2 392 305
2 304 306
2 306 307
2 244 308
2 312 309
2 274 310
2 310 311
2 308 312
2 350 313
2 244 314
2 314 315
2 248 316
2 358 317
2 316 318
2 318 319
2 280 320
2 320 321
2 282 322
2 362 323
2 254 324
2 368 325
2 256 326
2 370 327
2 260 328
2 372 329
2 328 330
2 330 331
2 294 332
2 378 333
2 296 334
2 334 335
2 264 336
2 338 337
2 336 338
2 384 339
2 266 340
2 382 341
2 340 342
2 386 343
2 270 344
2 346 345
2 344 346
2 394 347
2 272 348
2 396 349
2 312 350
2 350 351
2 310 352
2 354 353
2 352 354
2 354 355
2 280 356
2 360 357
2 318 358
2 358 359
2 356 360
2 360 361
2 322 362
2 362 363
2 284 364
2 364 365
2 286 366
2 366 367
2 324 368
2 368 369
2 326 370
2 370 371
2 328 372
2 372 373
2 292 374
2 374 375
2 292 376
2 376 377
2 332 378
2 378 379
2 334 380
2 380 381
2 342 382
2 382 383
2 338 384
2 384 385
2 342 386
2 386 387
2 302 388
2 390 389
2 388 390
2 390 391
2 306 392
2 392 393
2 346 394
2 394 395
2 348 396
2 398 397
2 396 398
2 398 399
CELL_DATA 399
SCALARS radius float
LOOKUP_TABLE default
0.139557
0.859191
0.105216
0.857962
0.104826
0.896251
0.106154
0.852907
0.118958
0.678689
0.126484
0.223043
0.12645
0.962563
0.0915719
0.44083
0.104908
0.677855
0.116087
0.675207
0.101477
0.966621
0.121117
0.556034
0.0985179
0.214948
0.199241
0.555205
0.108999
0.523024
0.136964
0.438769
0.114315
0.676383
0.10324
0.673974
0.115057
0.517179
0.12172
0.675242
0.146524
0.224591
0.126857
0.303904
0.102528
0.521857
0.104164
0.518693
0.139414
1.07204
0.106985
0.549732
0.157088
0.551582
0.153248
0.426487
0.12991
0.436761
0.11622
0.690262
0.0947449
0.545423
0.11649
0.212177
0.195835
0.547611
0.12871
0.515874
0.139699
0.434134
0.157282
0.521398
0.136349
0.689404
0.111206
0.544187
0.157105
0.299156
0.134211
0.408845
0.141482
0.41449
0.133376
0.423157
0.124579
0.606187
0.124029
0.605414
0.12424
0.471632
0.0999259
0.469562
0.104875
0.401633
0.129591
0.545912
0.13809
0.390861
0.143507
0.427141
0.164804
0.517512
0.147171
0.603674
0.105009
0.539787
0.116848
0.537973
0.101909
0.387729
0.132962
0.295087
0.147772
0.406579
0.114183
0.409164
0.140154
0.424254
0.153206
0.514337
0.11276
0.519162
0.147476
0.288508
0.134315
0.430021
0.113246
0.397178
0.121364
0.460896
0.130799
0.456726
0.168875
0.404384
0.166212
0.419035
0.160642
0.384953
0.124377
0.515164
0.123167
0.255621
0.157024
0.601915
0.140237
0.518003
0.14939
0.385154
0.137743
0.285526
0.177859
0.38482
0.155838
0.415332
0.157139
0.415797
0.158618
0.429118
0.129993
0.513706
0.111513
0.50099
0.145168
0.284456
0.11867
0.276896
0.148179
0.379798
0.14282
0.438286
0.115755
0.400786
0.119295
0.397672
0.142802
0.408744
0.186646
0.394799
0.12747
0.198752
0.181537
0.461547
0.137494
0.247208
0.223975
0.427531
0.122523
0.49958
0.125059
0.236635
0.214844
0.392525
0.143963
0.222937
0.206787
0.271671
0.243425
0.429764
0.173617
0.378049
0.16219
0.388821
0.140536
0.407162
0.143424
0.377645
0.162802
0.448919
0.138056
0.333949
0.150248
0.49546
0.134652
0.422442
0.12277
0.274101
0.165266
0.270432
0.159396
0.37366
0.150185
0.347366
0.133317
0.309524
0.159864
0.369007
0.188986
0.399206
0.202047
0.395337
0.158184
0.361347
0.165681
0.426507
0.14149
0.444578
0.15822
0.329751
0.159981
0.343037
0.140103
0.398262
0.139486
0.394109
0.166817
0.388619
0.194852
0.381918
0.194312
0.366572
0.166887
0.334604
0.181153
0.321514
0.176243
0.358253
0.203706
0.386635
0.214986
0.352829
0.150951
0.373093
0.192149
0.354501
0.163859
0.422443
0.180409
0.388101
0.18774
0.382621
0.173305
0.337746
0.17355
0.327172
0.139079
0.266477
0.243337
0.254706
0.23192
0.357968
0.14904
0.343027
0.195991
0.303501
0.208918
0.318235
0.204819
0.245849
0.229476
0.381149
0.191221
0.374256
0.179804
0.363071
0.221514
0.36246
0.177849
0.242795
0.225587
0.343948
0.193991
0.332404
0.169654
0.319007
0.181947
0.304989
0.203459
0.343631
0.21641
0.321305
0.198638
0.335792
0.23312
0.274293
0.251957
0.364203
0.174199
0.344745
0.235489
0.260413
0.235205
0.336179
0.225977
0.311835
0.219468
0.339787
0.233055
0.347193
0.174139
0.264177
0.246606
0.352773
0.221016
0.343484
0.237214
0.342002
0.23052
0.328974
0.17939
0.393813
0.198579
0.380765
0.220504
0.366919
0.227068
0.35355
0.196703
0.321723
0.16104
0.302671
0.246942
0.293694
0.192679
0.282906
0.249275
0.304419
0.226059
0.303346
0.282843
0.292012
0.237212
0.312321
0.266491
0.287931
0.245255
0.297324
0.260569
0.291811
0.242598
0.313383
0.26265
0.286087
0.262725
0.295964
0.266525
0.298122
0.274497
0.32086
0.281205
0.300652
0.278284
0.297682
0.264709
0.285835
0.260021
0.306612
0.262576
0.308735
0.224223
0.290616
0.236761
0.271203
0.240577
0.319077
0.291912
0.312611
0.233485
0.297662
0.23896
