# vtk DataFile Version 3.0
Tree
ASCII
DATASET POLYDATA
POINTS 20 float
-0.004 0.02 0.0265
0.0065 0.01 0.026302
0.00461 0.0117065 0.0248517
0.00725 0.009063 0.02275
0.00651684 0.00919274 0.0236607
0.008403 0.00575 0.023
0.002251 0.0141968 0.0248625
0.004365 0.0135 0.02175
0.00798227 0.00671168 0.0225814
0.009056 0.00525 0.02075
0.00810849 0.00642317 0.022707
0.00825 0.001955 0.02325
0.00673679 0.00915382 0.0233875
0.00752 0.0095 0.0185
-0.00021699 0.0164905 0.0249999
0.00025 0.016072 0.02175
0.00362524 0.0136039 0.0222794
0.004366 0.0125 0.01775
0.00841472 0.00318742 0.0224062
0.009 0.00125 0.020857
LINES 19 57
2 2 1
2 6 2
2 12 3
2 2 4
2 10 5
2 14 6
2 16 7
2 4 8
2 8 9
2 8 10
2 18 11
2 4 12
2 12 13
2 0 14
2 14 15
2 6 16
2 16 17
2 10 18
2 18 19
CELL_DATA 19
SCALARS radius float
LOOKUP_TABLE default
0.336318
0.760503
0.274236
0.737915
0.303601
0.810546
0.27571
0.670815
0.40066
0.619319
0.438449
0.464076
0.429667
0.82501
0.307302
0.452525
0.415456
0.593976
0.500364
