# vtk DataFile Version 3.0
Tree
ASCII
DATASET POLYDATA
POINTS 1722 float
40693.5 56318.5 68.45
40693.5 56318.5 2568.45
34443.5 55443.5 6443.45
34181.5 53559.5 10821.5
34260.1 54124.7 9508.08
37151.5 52322.5 13543.5
34205.1 53729.1 10427.5
29230.5 51580 12058.5
36052.8 53007.3 12010
33933.5 51084.5 15771.5
29713.6 51505.4 12091
25270.5 48857.5 14038.5
33916.7 51430.5 14963.8
29726.5 49847.5 17256.4
37009.4 52285 13387.9
38883.5 50342.5 16265.5
33928.5 51188.3 15529.2
33191.5 50094.5 18741.4
33931.6 51123.9 15679.4
36160.5 50589.5 16760.4
30983.6 50322.4 16568.6
28736.5 50589.5 15276.5
38214.6 50617.5 15899
38636.5 49104.5 18245.4
38731.3 50296.8 16153.3
40615.5 48857.5 17008.4
33137.5 50373.4 17686.3
30963.5 49352.5 19235.4
29590.4 50488 15767.5
26756.5 48609.5 16760.4
31032 52081.6 11914.5
30468.5 51332.5 14038.5
34188.6 53610.4 10703.3
33438.5 52817.5 12801.5
33175.3 50178.2 18424.9
35913.5 49847.5 20226.4
33185.3 50126.3 18621.1
32696.5 49352.5 20473.4
40210.8 49038.2 17054.7
41358.5 47372.5 18988.4
25579.8 48789.9 14045.3
23785.4 47372.5 15028.5
38673.6 49467.6 18098.1
39130.5 49104.5 19730.4
39143.9 49127.7 19228.5
40368.5 48362.5 20226.4
28012.9 49200.8 17016.7
27251.5 48362.5 18245.4
24482.7 47799.3 14857.6
24280.4 46877.5 16265.5
31520.6 49540.6 19224.9
30468.5 48857.5 20968.4
32932.4 49561.4 20146.6
33438.5 49352.5 21711.4
33286.7 49415.2 21242
35170.5 49104.5 21958.4
35501.1 52229.1 13494.7
35913.5 51579.5 14780.5
34231 51765.6 14389.4
32200.5 51827.5 14533.5
27218 48422.7 17991.1
26261.5 47619.5 18741.4
40922.4 48005.5 18253.6
43338.5 44649.5 17008.4
39903.2 48653.3 19847.2
39378.5 48114.5 21711.4
40269.8 48406.8 20136.9
41358.5 47619.5 20968.4
30528 48868.1 20549.1
29478.5 48114.5 21463.4
42340.8 46307 18092.8
43091.5 45639.5 18493.4
26548.4 47860.5 18516.3
26756.5 47619.5 19978.4
29793.3 48340.6 21189.1
28488.5 49104.5 27898.5
29291.3 49071.6 26814.7
31706.5 50342.5 33096.5
34973.8 49223.1 21938.3
37398.5 49352.5 23196.4
30981.9 49961.2 31212
37398.5 49352.5 32106.5
35473.5 49535.1 31838.1
37893.5 48857.5 37798.5
37101.5 48971.2 37020.8
36903.5 48362.5 43738.5
42760.4 44940.4 17180.4
42843.5 40689.5 14286.5
28729.3 49094.6 27573.4
23291.4 48114.5 29878.5
37655.9 48891.6 37565.2
43585.5 45639.5 39036.5
37372.8 48111 42513.8
39873.5 45392.5 47946.5
24341.1 47154 15843.1
21063.4 43659.5 16513.4
21671.2 44014 16817.5
19083.4 39452.5 19978.4
24813.5 47695.2 29279.6
20568.4 42669.5 31363.5
39554.7 48294.7 21485.3
39625.5 48362.5 23691.4
43165.1 44736.8 17060
45813.5 39699.5 20721.4
24813.5 47695.2 29279.6
19083.4 42174.5 25670.5
41856.8 46223.3 38036.3
46061.5 41679.5 35570.5
23200.3 45785.5 30071.5
23043.4 43907.5 36560.5
23583.4 44911.3 34878.5
26508.5 46382.5 40768.5
25588.8 45347.8 39261.4
27251.5 42669.5 44728.5
26906.4 42630.3 43564.2
27993.5 37224.5 46955.5
39604.3 48342.2 23029.6
42843.5 46877.5 26908.5
44253.5 43668.1 35833.9
46061.5 41927.5 29878.5
19851.4 39887.1 19229
19578.4 33759.5 20721.4
45519.1 42276.1 35649.5
45813.5 35739.5 36066.5
26232.6 46072.1 40316.4
31706.5 50342.5 40273.5
39123.3 46208.1 46316.7
43338.5 41679.5 45718.5
41318.1 42829.9 46079.7
41853.5 35987.5 46461.5
27667.4 38846.2 45938.1
27745.5 32769.5 42995.5
26347.6 47691.8 18673.9
23538.4 45392.5 20968.4
44886.5 40804.3 19162.7
45813.5 34997.5 18741.4
45519.1 42449.7 31665.1
46308.5 36729.5 29630.5
19747.7 37558.6 19796.1
19330.4 35739.5 26413.5
21838.7 43351.1 31258.5
21558.4 37967.5 34581.5
19755 35745.6 25181.2
21558.4 32274.5 30373.5
22133.3 38512 34072.2
23291.4 33759.5 36560.5
41535.6 37176.5 45803.9
40615.5 31284.5 42500.5
28067.1 33536.1 42759.2
28983.5 28562.5 38788.5
28828.9 29114.4 38742.3
29478.5 24849.4 34085.5
43681.5 43557 17690.8
44823.5 43659.5 22453.4
39588.3 47664.2 37781.9
43091.5 46877.5 32600.5
45986.7 37243.4 30420.5
46061.5 32027.5 30126.5
19629.2 34899.2 20443.8
21558.4 30294.5 16265.5
42732.4 42024.6 45826.9
45318.5 38957.5 41510.5
45798.7 32638.8 30032.5
44328.5 26334.5 28888.5
44586.9 27482.2 28643
43338.5 22374.4 24928.4
41002.7 32459.5 42734.1
41606.5 28314.5 37798.5
20979.6 31675.9 17519
23291.4 25592.5 18493.4
44406 26678.8 28814.8
40615.5 22869.4 30868.5
21951.5 32484.5 29613
25023.5 29057.5 33591.5
29857.5 25585.1 34892.5
33438.5 21879.4 30868.5
42962.1 40878.1 14426.6
43338.5 37719.5 12306.5
45385 36752.7 18369.1
45070.5 33017.5 15028.5
20358.4 33158.6 18864.4
21311.4 34749.5 12801.5
26928 48450.9 28358.2
25765.5 49599.5 34581.5
45855.1 34020.2 30148.9
44081.5 30294.5 34085.5
43710.1 23545.6 25169
43585.5 20889.4 19483.4
23500.6 43945.3 35983.9
24033.4 39947.5 39530.5
20413.9 34767.2 26510.7
22300.4 28314.5 25175.5
22412.9 27904.2 18123.1
23785.4 24602.4 13543.5
22206.9 29675.7 25917.2
25270.5 25592.5 27898.5
27893.5 33122.1 42886.8
30715.5 30047.5 44233.5
36671.1 49313.7 22819
37398.5 49352.5 26908.5
45259.4 33748.8 15306.7
45813.5 31037.5 10573.5
22824.7 26913.7 16749.2
23291.4 28809.5 12306.5
22460.6 28696.9 25172.7
23785.4 26087.5 22453.4
43450 22725.8 25000.6
39130.5 19404.4 24433.4
39810.9 20601.6 24528
33191.5 19652.4 23691.4
25109.7 46773 20144.7
24528.4 46877.5 23443.4
45793.5 41944.1 30057.6
45813.5 40442.5 25670.5
45685 35524.1 18629.7
46061.5 34254.5 23196.4
41658.6 30443.4 39816.8
43833.5 30789.5 37055.5
23774.4 26445.5 23083.7
26261.5 23612.4 21711.4
25399.8 24345.5 21573.8
27745.5 20147.4 16513.4
36671.1 49313.7 22819
33933.5 49847.5 27403.5
20216.3 35060.7 26111.9
20321.4 35492.5 30126.5
44387.1 30780.7 32884.2
42843.5 26582.5 33096.5
29592.2 25070.1 34327.6
26756.5 26087.5 31858.5
23616.1 45557.3 20850
21063.4 43907.5 21711.4
31489.1 50228.1 32531.1
29726.5 50094.5 36313.5
43140.4 20907.8 21025.6
41853.5 17919.4 18493.4
28887.6 28904.7 38759.8
32200.5 28067.5 41015.5
44596.1 43526 22319.7
45070.5 43412.5 25423.5
19627.6 35743.7 25550.9
19083.4 38957.5 27155.5
41968.6 42459.5 45963.4
44328.5 43659.5 42748.5
27506.5 36518.2 44171
25518.5 35492.5 41263.5
28208.3 37774.4 46783.3
30715.5 35244.5 49431.5
42135.5 47090.4 26739.7
43091.5 46382.5 29630.5
30401.7 49189.5 39904
32943.5 50342.5 37551.5
25926.6 22855.5 18665.2
25270.5 22622.4 15523.5
41220.1 47687.1 20885.3
43091.5 46134.5 22453.4
45926.2 35760.7 30295.6
46308.5 33759.5 33343.5
25718.4 35530.6 41268.3
24528.4 34749.5 38788.5
29267.2 48506.3 23231.5
27003.5 48114.5 24928.4
21636.6 41464 32067.6
19826.4 39204.5 31611.5
25266.2 35233.8 40326
26013.5 32027.5 39036.5
43117.5 42031 15578.7
44576.5 38957.5 15771.5
21384.8 30708.9 16641.5
21806.4 30789.5 13791.5
37897.9 47540.1 43654.7
41606.5 46134.5 43491.5
30146.5 28586.5 39617
32200.5 26087.5 38540.5
37501.1 49343.2 26620
38388.5 49352.5 29383.5
44836.4 39624.2 41853.7
45813.5 38709.5 39036.5
26511.1 43445.6 42273.3
25765.5 39204.5 42748.5
24702.8 46846.2 22453.8
22300.4 46134.5 23691.4
23525.5 44235.1 35652.3
22053.4 40937.5 35323.5
36784.3 20315.8 24855.2
34675.5 20394.4 26413.5
24534.1 46898.6 23329.7
24033.4 47124.5 25670.5
19747 34050.9 20800.1
20568.4 31037.5 22453.4
28367.6 30196.3 39486.8
27003.5 28314.5 36313.5
45911.9 40773.8 26007.4
46061.5 40194.5 23443.4
21676.3 32337.5 30145.4
21311.4 34007.5 32106.5
28514.6 25456.7 33389.3
28241.5 23859.4 30868.5
33163.6 49757.7 30850.3
34923.5 49599.5 29383.5
24675.7 45843.8 36886.6
25765.5 47867.5 38293.5
34826 20501.5 26414
32200.5 20889.4 28641.5
45523.8 39774.4 20210.4
46061.5 37472.5 20968.4
43181 30685.7 37883.9
45318.5 33264.5 37055.5
33206 22033.9 31193.6
34675.5 20394.4 29630.5
20410.1 41543.2 17404.1
19578.4 40194.5 17008.4
22057.3 39302.1 33879.3
22548.4 38462.5 36560.5
29768.9 28682 39359.8
29973.5 29552.5 41758.5
29635.4 49385.7 28500.2
28488.5 49599.5 30373.5
31315.1 49996.6 40162.6
34428.5 49599.5 41015.5
30149.3 26894.1 37017.5
31458.5 25592.5 36560.5
21325.9 44019.7 21782.1
19083.4 42422.5 22948.4
22384.5 28990.5 25396.1
21806.4 28562.5 22453.4
27554.7 37216.6 44701.2
28241.5 33512.5 45718.5
23094.4 46039 28196.9
22053.4 46629.5 26166.5
44084.4 30291.5 33872.9
43338.5 29057.5 35570.5
28579.6 24176 31612.2
29973.5 22127.4 29878.5
38460.7 49211.4 28914.6
40615.5 48362.5 31363.5
27535.5 47373 39991.1
27498.5 49352.5 38788.5
27566.3 20670.7 17129
29973.5 18662.4 16760.4
19936 40393.4 17109.3
19578.4 37472.5 16513.4
25168.7 45575.9 38169
24280.4 43659.5 39530.5
29817.4 48809.5 24913.3
31211.5 49104.5 26166.5
30066.1 50176 34885.7
27745.5 50342.5 35570.5
42316.1 39288.4 45246.4
43585.5 37224.5 44233.5
23403.8 46059.6 16512
22795.4 45392.5 18741.4
45774.9 35155.5 18707.9
46803.5 32522.5 18988.4
41558.8 34669.8 43952.3
43338.5 33759.5 42006.5
33927.8 49342.2 21506.6
34181.5 49352.5 23443.4
19333.7 37479.2 26417.4
18588.4 39947.5 24681.4
21592.4 31440.5 26471.6
22300.4 29552.5 28393.5
28588.1 48388.7 23740.6
26756.5 47619.5 22948.4
23083.8 43245.8 35553.6
21558.4 42917.5 33838.5
43021.1 21655.3 22571.8
40863.5 19652.4 21711.4
21163.1 43950.1 21738.3
20568.4 43164.5 20226.4
28129.6 50158.9 35524.2
26013.5 49352.5 36560.5
41551.9 35421.8 44507.7
41110.5 32769.5 45470.5
44359.4 43093.3 19719.5
45318.5 41927.5 20968.4
19185.6 38870.1 27129.5
19330.4 41184.5 28393.5
23563.9 30877.6 32019.3
24033.4 31532.5 34581.5
20672.7 43266.3 20755.6
19826.4 41927.5 20226.4
23567.3 40691.1 37982.4
23291.4 38957.5 38293.5
28493 33984.8 45544.3
29728.5 32024.5 45968.5
20983.3 44436 26189.8
20073.4 44154.5 24681.4
22400.2 36702.1 34745.9
21806.4 34749.5 34085.5
44047.5 43306.6 18786.3
43833.5 44897.5 20473.4
37018.4 49164.9 34541.7
39130.5 48857.5 35570.5
26425.7 46289.4 40632.9
27745.5 47372.5 42253.5
34896 49658 29822.5
36408.5 49599.5 29136.5
32430.5 49961.9 37840.2
34181.5 49847.5 35076.5
41461.8 31048.2 40692
39873.5 28809.5 40025.5
27233.4 48271.7 24895
26013.5 48362.5 26166.5
44096.1 25661.7 27600.8
43585.5 24354.4 27898.5
26838.8 47719.3 19756.8
27745.5 47867.5 21215.4
23281.8 45736.9 31827.4
23043.4 47124.5 33343.5
41058.6 21281.5 24992
39625.5 20147.4 26660.5
46090.3 40108.4 24031.7
46555.5 38462.5 22700.4
43587.3 43404.8 43373.9
43585.5 44154.5 41015.5
42016.7 40350.9 45496.4
42100.5 38214.5 47946.5
24322.4 47248.8 25428.1
[...]
CELL_DATA 1721
SCALARS radius float
LOOKUP_TABLE default
2.122e-314
100
100
100
74.6879
74.6879
69.4326
69.4326
69.4326
69.4326
62.2346
62.2346
57.8555
57.8555
66.9452
66.9452
55.7829
55.7829
53.7845
53.7845
48.2088
48.2088
57.8555
57.8555
55.7829
55.7829
51.8578
51.8578
44.8166
44.8166
66.9452
66.9452
66.9452
66.9452
50
50
48.2088
48.2088
51.8578
51.8578
57.8555
57.8555
55.7829
55.7829
53.7845
53.7845
41.6631
41.6631
51.8578
51.8578
50
50
44.8166
44.8166
43.2111
43.2111
66.9452
66.9452
62.2346
62.2346
40.1706
40.1706
48.2088
48.2088
51.8578
51.8578
50
50
46.4818
46.4818
46.4818
46.4818
37.344
37.344
44.8166
44.8166
34.7163
34.7163
40.1706
40.1706
31.1173
31.1173
23.2409
23.2409
19.3657
19.3657
43.2111
43.2111
33.4726
33.4726
18.672
18.672
16.1367
16.1367
50
50
43.2111
43.2111
27.8914
27.8914
48.2088
48.2088
41.6631
41.6631
26.8923
26.8923
15.5587
15.5587
25.9289
25.9289
23.2409
23.2409
19.3657
19.3657
16.1367
16.1367
46.4818
46.4818
13.9457
13.9457
36.0062
36.0062
12.9644
12.9644
18.672
18.672
14.4639
14.4639
13.9457
13.9457
14.4639
14.4639
36.0062
36.0062
36.0062
36.0062
13.4461
13.4461
32.2735
32.2735
24.1044
24.1044
27.8914
27.8914
20.0853
20.0853
12.0522
12.0522
11.2042
11.2042
9.68287
9.68287
38.7315
38.7315
17.3581
17.3581
11.2042
11.2042
28.9278
28.9278
12.9644
12.9644
9.33599
9.33599
8.36815
8.36815
9.68287
9.68287
25.9289
25.9289
7.77933
7.77933
21.6055
21.6055
8.06837
8.06837
37.344
37.344
31.1173
31.1173
27.8914
27.8914
30.0026
30.0026
9.68287
9.68287
7.50064
7.50064
21.6055
21.6055
24.1044
24.1044
24.1044
24.1044
20.8316
20.8316
10.4158
10.4158
38.7315
38.7315
27.8914
27.8914
22.4083
22.4083
18.672
18.672
7.23194
7.23194
6.72307
6.72307
32.2735
32.2735
12.5
12.5
30.0026
30.0026
8.06837
8.06837
17.3581
17.3581
16.1367
16.1367
37.344
37.344
25.9289
25.9289
9.00154
9.00154
7.50064
7.50064
31.1173
31.1173
30.0026
30.0026
6.0261
6.0261
9.33599
9.33599
32.2735
32.2735
26.8923
26.8923
13.4461
13.4461
12.0522
12.0522
12.9644
12.9644
41.6631
41.6631
16.1367
16.1367
13.9457
13.9457
48.2088
48.2088
10.4158
10.4158
10.4158
10.4158
41.6631
41.6631
22.4083
22.4083
10.0426
10.0426
38.7315
38.7315
25
25
15.0013
15.0013
8.67907
8.67907
32.2735
32.2735
11.6204
11.6204
18.0031
18.0031
30.0026
30.0026
22.4083
22.4083
6.48222
6.48222
28.9278
28.9278
27.8914
27.8914
10.0426
10.0426
9.68287
9.68287
20.8316
20.8316
7.23194
7.23194
25.9289
25.9289
21.6055
21.6055
5.81022
5.81022
34.7163
34.7163
7.50064
7.50064
6.72307
6.72307
40.1706
40.1706
20.8316
20.8316
9.00154
9.00154
33.4726
33.4726
15.5587
15.5587
8.67907
8.67907
26.8923
26.8923
19.3657
19.3657
13.4461
13.4461
25
25
8.36815
8.36815
6.48222
6.48222
28.9278
28.9278
18.0031
18.0031
13.4461
13.4461
37.344
37.344
20.0853
20.0853
37.344
37.344
26.8923
26.8923
12.9644
12.9644
46.4818
46.4818
28.9278
28.9278
10.8028
10.8028
41.6631
41.6631
24.1044
24.1044
22.4083
22.4083
40.1706
40.1706
20.8316
20.8316
6.72307
6.72307
25.9289
25.9289
24.1044
24.1044
11.2042
11.2042
36.0062
36.0062
23.2409
23.2409
18.672
18.672
25
25
20.0853
20.0853
11.2042
11.2042
22.4083
22.4083
18.672
18.672
37.344
37.344
20.8316
20.8316
17.3581
17.3581
25
25
14.4639
14.4639
8.36815
8.36815
38.7315
38.7315
8.06837
8.06837
36.0062
36.0062
24.1044
24.1044
6.97286
6.97286
9.00154
9.00154
12.9644
12.9644
13.4461
13.4461
27.8914
27.8914
7.77933
7.77933
36.0062
36.0062
9.33599
9.33599
6.97286
6.97286
37.344
37.344
20.8316
20.8316
43.2111
43.2111
15.0013
15.0013
6.25
6.25
36.0062
36.0062
15.0013
15.0013
28.9278
28.9278
8.36815
8.36815
20.8316
20.8316
9.33599
9.33599
23.2409
23.2409
18.672
18.672
12.9644
12.9644
18.0031
18.0031
34.7163
34.7163
10.0426
10.0426
27.8914
27.8914
18.0031
18.0031
25.9289
25.9289
18.0031
18.0031
26.8923
26.8923
17.3581
17.3581
11.2042
11.2042
17.3581
17.3581
25.9289
25.9289
12.5
12.5
33.4726
33.4726
19.3657
19.3657
11.6204
11.6204
12.5
12.5
14.4639
14.4639
6.97286
6.97286
10.8028
10.8028
11.2042
11.2042
15.5587
15.5587
10.8028
10.8028
31.1173
31.1173
13.9457
13.9457
26.8923
26.8923
9.33599
9.33599
22.4083
22.4083
18.672
18.672
13.9457
13.9457
15.5587
15.5587
25.9289
25.9289
9.33599
9.33599
24.1044
24.1044
6.25
6.25
27.8914
27.8914
8.36815
8.36815
12.9644
12.9644
7.50064
7.50064
15.0013
15.0013
6.25
6.25
12.5
12.5
7.23194
7.23194
10.0426
10.0426
12.0522
12.0522
25
25
13.4461
13.4461
12.5
12.5
51.8578
51.8578
14.4639
14.4639
60.0051
60.0051
25
25
62.2346
62.2346
26.8923
26.8923
36.0062
36.0062
24.1044
24.1044
34.7163
34.7163
25
25
46.4818
46.4818
13.9457
13.9457
34.7163
34.7163
13.9457
13.9457
40.1706
40.1706
9.33599
9.33599
33.4726
33.4726
9.00154
9.00154
44.8166
44.8166
22.4083
22.4083
30.0026
30.0026
16.7363
16.7363
37.344
37.344
20.0853
20.0853
43.2111
43.2111
7.23194
7.23194
33.4726
33.4726
16.7363
16.7363
34.7163
34.7163
20.8316
20.8316
10.0426
10.0426
23.2409
23.2409
25.9289
25.9289
11.2042
11.2042
30.0026
30.0026
14.4639
14.4639
30.0026
30.0026
8.36815
8.36815
33.4726
33.4726
7.23194
7.23194
28.9278
28.9278
8.06837
8.06837
24.1044
24.1044
14.4639
14.4639
32.2735
32.2735
9.68287
9.68287
20.8316
20.8316
15.5587
15.5587
23.2409
23.2409
57.8555
57.8555
25.9289
25.9289
86.4222
86.4222
26.8923
26.8923
62.2346
62.2346
12.5
12.5
50
50
15.0013
15.0013
34.7163
34.7163
18.0031
18.0031
33.4726
33.4726
7.50064
7.50064
25
25
17.3581
17.3581
25
25
12.5
12.5
22.4083
22.4083
7.77933
7.77933
28.9278
28.9278
43.2111
43.2111
13.4461
13.4461
34.7163
34.7163
24.1044
24.1044
40.1706
40.1706
18.672
18.672
21.6055
21.6055
7.23194
7.23194
33.4726
33.4726
13.4461
13.4461
30.0026
30.0026
48.2088
48.2088
18.0031
18.0031
44.8166
44.8166
15.0013
15.0013
34.7163
34.7163
17.3581
17.3581
25.9289
25.9289
9.33599
9.33599
14.4639
14.4639
53.7845
53.7845
8.67907
8.67907
36.0062
36.0062
20.8316
20.8316
28.9278
28.9278
10.8028
10.8028
23.2409
23.2409
33.4726
33.4726
23.2409
23.2409
31.1173
31.1173
20.0853
20.0853
24.1044
24.1044
12.5
12.5
23.2409
23.2409
38.7315
38.7315
15.0013
15.0013
34.7163
34.7163
8.67907
8.67907
10.8028
10.8028
10.8028
10.8028
10.0426
10.0426
44.8166
44.8166
9.00154
9.00154
25
25
15.0013
15.0013
25
25
40.1706
40.1706
15.5587
15.5587
32.2735
32.2735
18.0031
18.0031
13.4461
13.4461
19.3657
19.3657
22.4083
22.4083
57.8555
57.8555
21.6055
21.6055
28.9278
28.9278
19.3657
19.3657
31.1173
31.1173
10.8028
10.8028
13.4461
13.4461
37.344
37.344
16.7363
16.7363
16.7363
16.7363
36.0062
36.0062
10.4158
10.4158
28.9278
28.9278
41.6631
41.6631
7.77933
7.77933
22.4083
22.4083
64.547
64.547
24.1044
24.1044
37.344
37.344
12.5
12.5
19.3657
19.3657
36.0062
36.0062
19.3657
19.3657
38.7315
38.7315
9.33599
9.33599
28.9278
28.9278
31.1173
31.1173
20.0853
20.0853
14.4639
14.4639
27.8914
27.8914
11.6204
11.6204
20.0853
20.0853
26.8923
26.8923
12.0522
12.0522
18.672
18.672
25
25
18.672
18.672
21.6055
21.6055
36.0062
36.0062
16.7363
16.7363
25
25
12.0522
12.0522
10.4158
10.4158
17.3581
17.3581
10.8028
10.8028
16.1367
16.1367
13.4461
13.4461
10.4158
10.4158
13.4461
13.4461
18.672
18.672
12.5
12.5
10.4158
10.4158
21.6055
21.6055
12.0522
12.0522
50
50
9.00154
9.00154
34.7163
34.7163
7.23194
7.23194
6.97286
6.97286
21.6055
21.6055
8.36815
8.36815
25.9289
25.9289
27.8914
27.8914
51.8578
51.8578
10.8028
10.8028
12.0522
12.0522
80.3411
80.3411
8.67907
8.67907
31.1173
31.1173
60.0051
60.0051
19.3657
19.3657
16.1367
16.1367
50
50
17.3581
17.3581
21.6055
21.6055
38.7315
38.7315
6.97286
6.97286
20.0853
20.0853
33.4726
33.4726
12.9644
12.9644
20.0853
20.0853
12.9644
12.9644
40.1706
40.1706
6.48222
6.48222
10.8028
10.8028
31.1173
31.1173
14.4639
14.4639
23.2409
23.2409
10.4158
10.4158
33.4726
33.4726
16.7363
16.7363
12.0522
12.0522
26.8923
26.8923
32.2735
32.2735
11.6204
11.6204
7.23194
7.23194
22.4083
22.4083
30.0026
30.0026
30.0026
30.0026
15.0013
15.0013
20.8316
20.8316
27.8914
27.8914
26.8923
26.8923
43.2111
43.2111
8.06837
8.06837
10.0426
10.0426
23.2409
23.2409
25
25
16.1367
16.1367
26.8923
26.8923
25.9289
25.9289
16.7363
16.7363
19.3657
19.3657
8.67907
8.67907
22.4083
22.4083
12.5
12.5
6.25
6.25
7.23194
7.23194
20.0853
20.0853
5.81022
5.81022
25
25
8.06837
8.06837
21.6055
21.6055
19.3657
19.3657
12.0522
12.0522
7.77933
7.77933
18.672
18.672
7.77933
7.77933
20.0853
20.0853
23.2409
23.2409
13.9457
13.9457
18.0031
18.0031
9.68287
9.68287
19.3657
19.3657
21.6055
21.6055
5.81022
5.81022
8.67907
8.67907
10.0426
10.0426
6.48222
6.48222
15.5587
15.5587
12.5
12.5
8.36815
8.36815
6.97286
6.97286
15.5587
15.5587
9.33599
9.33599
18.672
18.672
10.4158
10.4158
6.72307
6.72307
21.6055
21.6055
16.7363
16.7363
14.4639
14.4639
9.00154
9.00154
9.68287
9.68287
20.0853
20.0853
9.68287
9.68287
12.9644
12.9644
15.5587
15.5587
17.3581
17.3581
9.68287
9.68287
11.6204
11.6204
16.7363
16.7363
6.97286
6.97286
6.0261
6.0261
12.9644
12.9644
15.0013
15.0013
9.00154
9.00154
9.00154
9.00154
6.72307
6.72307
6.97286
6.97286
8.67907
8.67907
6.0261
6.0261
8.36815
8.36815
7.23194
7.23194
13.9457
13.9457
8.67907
8.67907
10.4158
10.4158
8.36815
8.36815
55.7829
55.7829
8.06837
8.06837
10.8028
10.8028
77.463
77.463
53.7845
53.7845
60.0051
60.0051
64.547
64.547
46.4818
46.4818
60.0051
60.0051
64.547
64.547
60.0051
60.0051
62.2346
62.2346
92.9635
92.9635
83.3262
83.3262
72.0123
72.0123
72.0123
72.0123
64.547
64.547
64.547
64.547
64.547
64.547
41.6631
41.6631
48.2088
48.2088
44.8166
44.8166
38.7315
38.7315
33.4726
33.4726
44.8166
44.8166
34.7163
34.7163
36.0062
36.0062
34.7163
34.7163
31.1173
31.1173
37.344
37.344
38.7315
38.7315
41.6631
41.6631
40.1706
40.1706
38.7315
38.7315
32.2735
32.2735
24.1044
24.1044
9.33599
9.33599
27.8914
27.8914
31.1173
31.1173
9.68287
9.68287
16.7363
16.7363
53.7845
53.7845
53.7845
53.7845
34.7163
34.7163
25
25
17.3581
17.3581
7.77933
7.77933
46.4818
46.4818
28.9278
28.9278
12.5
12.5
89.6332
89.6332
30.0026
30.0026
96.4176
96.4176
28.9278
28.9278
24.1044
24.1044
8.06837
8.06837
12.5
12.5
20.0853
20.0853
36.0062
36.0062
23.2409
23.2409
46.4818
46.4818
11.2042
11.2042
55.7829
55.7829
23.2409
23.2409
34.7163
34.7163
26.8923
26.8923
48.2088
48.2088
8.67907
8.67907
34.7163
34.7163
38.7315
38.7315
25.9289
25.9289
11.6204
11.6204
12.9644
12.9644
17.3581
17.3581
11.6204
11.6204
10.4158
10.4158
10.4158
10.4158
2.122e-312
2.122e-312
2.122e-312
2.122e-312
2.122e-312
2.122e-312
2.122e-312
2.122e-312
2.122e-312
2.122e-312
2.122e-312
2.122e-312
2.122e-312
2.122e-312
2.122e-312
2.122e-312
2.122e-312
2.122e-312
2.122e-312
2.122e-312
2.122e-312
2.122e-312
2.122e-312
2.122e-312
2.122e-312
2.122e-312
2.122e-312
2.122e-312
2.122e-312
2.122e-312
2.122e-312
2.122e-312
2.122e-312
2.122e-312
2.122e-312
2.122e-312
2.122e-312
2.122e-312
2.122e-312
2.122e-312
2.122e-312
2.122e-312
2.122e-312
2.122e-312
2.122e-312
2.122e-312
2.122e-312
2.122e-312
2.122e-312
2.122e-312
2.122e-312
2.122e-312
2.122e-312
2.122e-312
2.122e-312
2.122e-312
2.122e-312
2.122e-312
2.122e-312
2.122e-312
2.122e-312
2.122e-312
2.122e-312
2.122e-312
2.122e-312
2.122e-312
2.122e-312
2.122e-312
2.122e-312
2.122e-312
2.122e-312
2.122e-312
2.122e-312
2.122e-312
2.122e-312
2.122e-312
2.122e-312
2.122e-312
2.122e-312
2.122e-312
2.122e-312
2.122e-312
2.122e-312
2.122e-312
2.122e-312
2.122e-312
2.122e-312
2.122e-312
2.122e-312
2.122e-312
2.122e-312
2.122e-312
2.122e-312
2.122e-312
2.122e-312
2.122e-312
2.122e-312
2.122e-312
2.122e-312
2.122e-312
2.122e-312
2.122e-312
2.122e-312
2.122e-312
2.122e-312
2.122e-312
2.122e-312
2.122e-312
2.122e-312
2.122e-312
2.122e-312
2.122e-312
2.122e-312
2.122e-312
2.122e-312
2.122e-312
2.122e-312
2.122e-312
2.122e-312
2.122e-312
2.122e-312
2.122e-312
2.122e-312
2.122e-312
2.122e-312
2.122e-312
2.122e-312
2.122e-312
2.122e-312
2.122e-312
2.122e-312
2.122e-312
2.122e-312
2.122e-312
2.122e-312
2.122e-312
2.122e-312
2.122e-312
2.122e-312
2.122e-312
2.122e-312
2.122e-312
2.122e-312
2.122e-312
2.122e-312
2.122e-312
2.122e-312
2.122e-312
2.122e-312
2.122e-312
2.122e-312
2.122e-312
2.122e-312
2.122e-312
2.122e-312
2.122e-312
2.122e-312
2.122e-312
2.122e-312
2.122e-312
2.122e-312
2.122e-312
2.122e-312
2.122e-312
2.122e-312
2.122e-312
2.122e-312
2.122e-312
2.122e-312
2.122e-312
2.122e-312
2.122e-312
2.122e-312
2.122e-312
2.122e-312
2.122e-312
2.122e-312
2.122e-312
2.122e-312
2.122e-312
2.122e-312
2.122e-312
2.122e-312
2.122e-312
2.122e-312
2.122e-312
2.122e-312
2.122e-312
2.122e-312
2.122e-312
2.122e-312
2.122e-312
2.122e-312
2.122e-312
2.122e-312
2.122e-312
2.122e-312
2.122e-312
2.122e-312
2.122e-312
2.122e-312
2.122e-312
2.122e-312
2.122e-312
2.122e-312
2.122e-312
2.122e-312
2.122e-312
2.122e-312
2.122e-312
2.122e-312
2.122e-312
2.122e-312
2.122e-312
2.122e-312
2.122e-312
2.122e-312
2.122e-312
2.122e-312
2.122e-312
2.122e-312
2.122e-312
2.122e-312
2.122e-312
2.122e-312
2.122e-312
2.122e-312
2.122e-312
2.122e-312
2.122e-312
2.122e-312
2.122e-312
2.122e-312
2.122e-312
2.122e-312
2.122e-312
2.122e-312
2.122e-312
2.122e-312
2.122e-312
2.122e-312
2.122e-312
2.122e-312
2.122e-312
2.122e-312
2.122e-312
2.122e-312
2.122e-312
2.122e-312
2.122e-312
2.122e-312
2.122e-312
2.122e-312
2.122e-312
2.122e-312
2.122e-312
2.122e-312
2.122e-312
2.122e-312
2.122e-312
2.122e-312
2.122e-312
2.122e-312
2.122e-312
2.122e-312
2.122e-312
2.122e-312
2.122e-312
2.122e-312
2.122e-312
2.122e-312
2.122e-312
2.122e-312
2.122e-312
2.122e-312
2.122e-312
2.122e-312
2.122e-312
2.122e-312
2.122e-312
2.122e-312
2.122e-312
2.122e-312
2.122e-312
2.122e-312
2.122e-312
2.122e-312
2.122e-312
2.122e-312
2.122e-312
2.122e-312
2.122e-312
2.122e-312
2.122e-312
2.122e-312
2.122e-312
2.122e-312
2.122e-312
2.122e-312
2.122e-312
2.122e-312
2.122e-312
2.122e-312
2.122e-312
2.122e-312
2.122e-312
2.122e-312
2.122e-312
2.122e-312
2.122e-312
2.122e-312
2.122e-312
2.122e-312
2.122e-312
2.122e-312
2.122e-312
2.122e-312
2.122e-312
2.122e-312
2.122e-312
2.122e-312
2.122e-312
2.122e-312
2.122e-312
2.122e-312
2.122e-312
2.122e-312
2.122e-312
2.122e-312
2.122e-312
2.122e-312
2.122e-312
2.122e-312
2.122e-312
2.122e-312
2.122e-312
2.122e-312
2.122e-312
2.122e-312
2.122e-312
2.122e-312
2.122e-312
2.122e-312
2.122e-312
2.122e-312
2.122e-312
2.122e-312
2.122e-312
2.122e-312
2.122e-312
2.122e-312
2.122e-312
2.122e-312
2.122e-312
2.122e-312
2.122e-312
2.122e-312
2.122e-312
2.122e-312
2.122e-312
2.122e-312
2.122e-312
2.122e-312
2.122e-312
2.122e-312
2.122e-312
2.122e-312
2.122e-312
2.122e-312
2.122e-312
2.122e-312
2.122e-312
2.122e-312
2.122e-312
2.122e-312
2.122e-312
2.122e-312
2.122e-312
2.122e-312
2.122e-312
2.122e-312
2.122e-312
2.122e-312
2.122e-312
2.122e-312
2.122e-312
2.122e-312
2.122e-312
2.122e-312
2.122e-312
2.122e-312
2.122e-312
2.122e-312
2.122e-312
2.122e-312
2.122e-312
2.122e-312
2.122e-312
2.122e-312
2.122e-312
2.122e-312
2.122e-312
2.122e-312
2.122e-312
2.122e-312
2.122e-312
2.122e-312
2.122e-312
2.122e-312
2.122e-312
2.122e-312
2.122e-312
2.122e-312
2.122e-312
2.122e-312
2.122e-312
2.122e-312
2.122e-312
2.122e-312
