# vtk DataFile Version 3.0
vtk output
ASCII
DATASET POLYDATA
POINTS 5324 double
95.394 68.695 205.82
95.575 68.576 205.97
95.704 68.514 206.07
95.782 68.466 206.14
95.986 68.374 206.3
96.002 68.363 206.31
96.263 68.291 206.49
96.282 68.282 206.5
96.359 68.258 206.56
96.551 68.219 206.67
96.632 68.206 206.72
96.791 68.17 206.82
96.918 68.14 206.9
97.008 68.128 206.95
97.167 68.106 207.03
97.332 68.087 207.11
97.46 68.064 207.18
97.654 68.041 207.27
97.743 68.028 207.32
97.994 67.999 207.44
98.031 67.993 207.46
98.253 67.967 207.57
98.323 67.959 207.6
98.335 67.958 207.6
98.616 67.927 207.73
98.676 67.921 207.76
98.908 67.893 207.88
99.014 67.881 207.93
99.195 67.858 208.04
99.348 67.837 208.14
99.47 67.82 208.23
99.669 67.792 208.4
99.719 67.785 208.44
99.884 67.762 208.63
99.939 67.754 208.69
99.953 67.752 208.71
100.15 67.73 208.99
100.2 67.726 209.09
100.34 67.72 209.38
100.43 67.728 209.68
100.49 67.736 209.88
100.52 67.76 210.12
100.57 67.788 210.45
100.6 67.881 211.05
100.61 67.892 211.14
100.6 67.901 211.18
100.6 67.916 211.25
100.59 67.995 211.63
100.59 68.014 211.72
100.58 68.076 212.02
100.53 68.193 212.47
100.52 68.216 212.57
100.51 68.237 212.64
100.47 68.326 212.97
100.44 68.374 213.14
100.41 68.431 213.35
100.37 68.504 213.57
100.31 68.599 213.89
100.18 68.773 214.42
100.18 68.775 214.42
100.06 68.936 214.9
100.05 68.948 214.94
99.945 69.091 215.37
99.924 69.123 215.47
99.884 69.175 215.63
99.836 69.236 215.81
99.802 69.283 215.95
99.771 69.334 216.11
99.672 69.479 216.56
99.67 69.484 216.58
99.657 69.505 216.64
99.569 69.65 217.1
99.551 69.676 217.18
99.473 69.823 217.64
99.438 69.881 217.83
99.38 70.01 218.23
99.322 70.12 218.58
99.29 70.205 218.85
99.271 70.285 219.1
99.204 70.412 219.5
99.194 70.447 219.61
99.15 70.57 220
99.141 70.619 220.14
99.117 70.714 220.43
99.1 70.779 220.63
99.09 70.826 220.77
99.086 70.935 221.09
99.09 71.048 221.4
99.091 71.094 221.53
99.095 71.256 221.98
99.095 71.262 222
99.08 71.436 222.51
99.047 71.621 223.07
99.046 71.635 223.11
99.033 71.68 223.25
98.993 71.828 223.72
98.984 71.852 223.8
98.904 72.04 224.42
98.9 72.049 224.46
98.9 72.05 224.46
98.899 72.052 224.47
98.802 72.233 225.1
98.754 72.308 225.37
98.718 72.364 225.57
98.676 72.431 225.81
98.633 72.498 226.06
98.568 72.592 226.41
98.491 72.695 226.8
98.479 72.711 226.86
98.419 72.802 227.19
98.362 72.893 227.53
98.326 72.943 227.71
98.274 73.021 228
98.238 73.08 228.21
98.21 73.128 228.38
98.152 73.22 228.71
98.096 73.308 229.03
98.081 73.335 229.13
98.02 73.444 229.51
98 73.48 229.63
97.997 73.486 229.65
97.99 73.497 229.69
97.911 73.65 230.22
97.868 73.738 230.51
97.85 73.787 230.66
97.811 73.883 230.98
97.78 73.985 231.28
97.766 74.026 231.41
97.745 74.14 231.73
97.732 74.196 231.89
97.723 74.335 232.25
97.711 74.417 232.48
97.715 74.587 232.89
97.709 74.657 233.08
97.705 74.725 233.26
97.712 74.837 233.52
97.716 74.899 233.66
97.731 75.105 234.13
97.746 75.307 234.59
97.75 75.368 234.73
97.757 75.483 235
97.76 75.57 235.2
97.763 75.692 235.5
97.762 75.748 235.64
97.761 75.856 235.92
97.753 75.992 236.28
97.752 76.011 236.33
97.74 76.132 236.67
97.727 76.239 236.98
97.719 76.293 237.13
97.714 76.318 237.21
97.686 76.49 237.73
97.679 76.524 237.83
97.648 76.685 238.33
97.638 76.737 238.49
97.61 76.865 238.9
97.61 76.867 238.91
97.61 76.869 238.91
97.59 76.988 239.27
97.583 77.051 239.45
97.561 77.177 239.83
97.551 77.233 240
97.538 77.337 240.3
97.535 77.384 240.43
97.532 77.43 240.55
97.512 77.603 241.05
97.507 77.677 241.25
97.497 77.791 241.56
97.494 77.877 241.78
97.481 78.075 242.31
97.481 78.092 242.36
97.479 78.123 242.44
97.473 78.256 242.78
97.471 78.313 242.93
97.467 78.45 243.28
97.461 78.575 243.6
97.452 78.708 243.96
97.449 78.747 244.07
97.442 78.864 244.38
97.433 78.971 244.68
97.429 79.039 244.86
97.425 79.08 244.97
97.409 79.249 245.45
97.407 79.284 245.54
97.389 79.466 246.06
97.388 79.474 246.08
97.371 79.657 246.59
97.371 79.661 246.61
97.355 79.849 247.13
97.354 79.862 247.16
97.338 80.047 247.68
97.338 80.052 247.69
97.322 80.226 248.18
97.321 80.235 248.2
97.301 80.415 248.72
97.298 80.438 248.79
97.291 80.493 248.96
97.279 80.582 249.23
97.27 80.641 249.41
97.257 80.707 249.63
97.249 80.749 249.77
97.23 80.844 250.09
97.22 80.884 250.24
97.195 80.976 250.59
97.19 80.994 250.66
97.177 81.038 250.83
97.158 81.098 251.07
97.146 81.136 251.22
97.124 81.202 251.49
97.105 81.266 251.74
97.091 81.312 251.92
97.053 81.439 252.42
97.052 81.442 252.43
97.051 81.446 252.45
97.018 81.559 252.89
96.999 81.625 253.14
96.985 81.665 253.31
96.973 81.696 253.44
96.942 81.792 253.84
96.919 81.841 254.07
96.894 81.899 254.33
96.857 81.941 254.61
96.813 81.995 254.96
96.786 82.011 255.12
96.748 82.02 255.32
96.694 82.044 255.64
96.593 82.037 256.08
96.559 82.041 256.25
96.49 82.029 256.53
96.418 82.014 256.81
96.345 81.994 257.09
96.302 81.983 257.25
96.237 81.964 257.49
96.173 81.945 257.72
96.147 81.939 257.82
96.011 81.902 258.33
95.963 81.891 258.52
95.839 81.867 259
95.831 81.865 259.04
95.827 81.864 259.05
95.716 81.852 259.53
95.606 81.848 260.02
95.594 81.848 260.08
95.572 81.848 260.18
95.467 81.85 260.67
95.421 81.852 260.89
95.358 81.855 261.2
95.298 81.86 261.49
95.221 81.865 261.86
95.169 81.87 262.12
95.13 81.874 262.31
95.022 81.88 262.84
94.99 81.883 262.99
94.914 81.888 263.36
94.777 81.899 264.03
94.768 81.899 264.08
94.759 81.9 264.12
94.641 81.909 264.7
94.614 81.912 264.83
94.544 81.922 265.19
94.481 81.936 265.52
94.407 81.945 265.89
94.299 81.965 266.46
94.29 81.967 266.5
94.284 81.969 266.54
94.186 81.997 267.07
94.103 82.023 267.53
94.069 82.038 267.73
94.021 82.056 268
93.974 82.073 268.27
93.919 82.097 268.59
93.879 82.114 268.83
93.861 82.123 268.93
93.751 82.169 269.57
93.741 82.173 269.63
93.705 82.185 269.83
93.628 82.212 270.27
93.601 82.222 270.42
93.517 82.24 270.87
93.435 82.256 271.3
93.401 82.257 271.46
93.301 82.258 271.95
93.261 82.258 272.14
93.251 82.258 272.19
93.226 82.255 272.3
93.117 82.238 272.79
93.051 82.217 273.05
92.985 82.195 273.32
92.825 82.118 273.92
92.81 82.112 273.98
92.789 82.1 274.05
92.634 82.003 274.59
92.504 81.91 275.02
92.476 81.888 275.11
92.424 81.844 275.27
92.312 81.751 275.61
92.256 81.701 275.78
92.139 81.592 276.13
92.048 81.505 276.39
91.958 81.415 276.64
91.906 81.362 276.79
91.847 81.3 276.95
91.772 81.22 277.15
91.656 81.091 277.46
91.621 81.053 277.55
91.453 80.858 277.99
91.448 80.853 278
91.447 80.851 278
91.275 80.646 278.44
91.225 80.584 278.56
91.108 80.439 278.85
91.006 80.309 279.1
90.968 80.26 279.19
90.817 80.067 279.56
90.795 80.039 279.61
90.776 80.014 279.66
90.724 79.945 279.78
90.674 79.88 279.9
90.612 79.804 280.06
90.512 79.679 280.31
90.453 79.605 280.45
90.287 79.403 280.87
90.281 79.396 280.89
90.267 79.379 280.92
90.108 79.193 281.34
90.008 79.079 281.61
89.937 78.998 281.8
89.89 78.945 281.93
89.761 78.803 282.28
89.668 78.702 282.54
89.615 78.645 282.7
89.567 78.593 282.83
89.47 78.489 283.11
89.355 78.366 283.44
89.31 78.318 283.56
89.202 78.2 283.87
89.137 78.13 284.06
89.09 78.079 284.19
88.969 77.947 284.52
88.909 77.88 284.68
88.72 77.666 285.18
88.68 77.62 285.28
88.647 77.582 285.36
88.411 77.305 285.94
88.408 77.301 285.95
88.387 77.275 286
88.18 77.025 286.47
88.157 76.997 286.52
88.114 76.943 286.62
87.971 76.767 286.92
87.845 76.608 287.18
87.776 76.522 287.32
87.622 76.326 287.62
87.57 76.26 287.72
87.398 76.039 288.04
87.368 76 288.09
87.174 75.748 288.44
87.163 75.734 288.46
86.978 75.493 288.78
86.969 75.481 288.8
86.759 75.207 289.16
86.518 74.892 289.59
86.512 74.884 289.6
86.497 74.865 289.63
86.294 74.6 290
86.217 74.5 290.15
86.055 74.29 290.46
85.979 74.19 290.61
85.842 74.011 290.88
85.741 73.879 291.09
85.665 73.779 291.25
85.613 73.712 291.35
85.429 73.471 291.73
85.361 73.383 291.86
85.194 73.165 292.19
85.188 73.158 292.2
85.022 72.946 292.5
84.866 72.75 292.78
84.829 72.702 292.84
84.639 72.467 293.15
84.618 72.441 293.19
84.377 72.149 293.56
84.375 72.147 293.56
84.374 72.145 293.56
84.182 71.916 293.85
84.084 71.8 293.99
83.996 71.698 294.11
83.937 71.63 294.19
83.73 71.383 294.5
83.649 71.289 294.61
83.482 71.09 294.85
83.382 70.975 294.99
83.24 70.808 295.19
83.118 70.669 295.36
82.999 70.53 295.52
82.855 70.367 295.72
82.758 70.257 295.85
82.591 70.07 296.07
82.516 69.985 296.17
82.328 69.775 296.41
82.272 69.713 296.49
82.063 69.484 296.75
82.024 69.442 296.8
81.794 69.196 297.08
81.77 69.17 297.11
81.521 68.915 297.39
81.505 68.898 297.41
81.243 68.641 297.68
81.226 68.626 297.7
80.957 68.378 297.95
80.927 68.351 297.97
80.666 68.131 298.17
80.595 68.075 298.22
80.366 67.899 298.35
80.218 67.793 298.42
80.058 67.681 298.49
79.785 67.502 298.58
79.74 67.473 298.59
79.646 67.415 298.6
79.414 67.275 298.64
79.286 67.2 298.65
79.083 67.083 298.66
78.75 66.897 298.66
100.36 67.354 210.61
100.32 67.224 210.71
100.25 67.071 210.83
100.18 66.846 210.99
100.15 66.77 211.05
100.1 66.581 211.19
100.07 66.455 211.28
100.06 66.387 211.33
100.01 66.135 211.52
99.96 65.859 211.72
99.955 65.823 211.75
99.951 65.788 211.77
99.912 65.521 211.97
99.875 65.256 212.16
99.874 65.249 212.17
99.873 65.24 212.18
99.843 64.993 212.36
99.821 64.782 212.51
99.818 64.75 212.54
99.816 64.721 212.56
99.8 64.499 212.72
99.79 64.305 212.87
99.788 64.235 212.92
99.788 64.062 213.05
99.79 63.956 213.13
99.792 63.919 213.16
99.812 63.66 213.36
99.827 63.56 213.44
99.851 63.348 213.6
99.877 63.164 213.75
99.893 63.039 213.85
99.914 62.855 213.99
99.931 62.757 214.07
99.946 62.673 214.13
99.977 62.489 214.28
100.01 62.285 214.44
100.02 62.241 214.47
100.03 62.204 214.5
100.08 62.015 214.65
100.14 61.817 214.81
100.15 61.806 214.82
100.15 61.794 214.83
100.23 61.589 214.99
100.3 61.415 215.13
100.32 61.367 215.17
100.34 61.317 215.21
100.41 61.17 215.33
100.49 61.004 215.47
100.49 61.002 215.47
100.6 60.802 215.63
100.63 60.742 215.68
100.74 60.5 215.88
100.75 60.49 215.89
100.76 60.463 215.91
100.85 60.288 216.05
100.9 60.189 216.13
100.98 60.054 216.24
101.03 59.954 216.32
101.07 59.867 216.4
[...]
CELL_DATA 5339
FIELD Fieldata 2
LAT 1 5339 float
0
0.139093
0.231803
0.290946
0.435208
0.447948
0.618272
0.632239
0.682648
0.802371
0.851807
0.952609
1.03379
1.08708
1.18207
1.27897
1.35804
1.47162
1.52548
1.67191
1.69463
1.8243
1.86486
1.87196
2.03553
2.07031
2.20802
2.27134
2.38289
2.47989
2.5599
2.69746
2.73348
2.86516
2.90779
2.92011
3.10168
3.16337
3.32974
3.49487
3.60737
3.73187
3.90817
4.22867
4.27513
4.29938
4.33774
4.54282
4.58991
4.74847
4.99829
5.04844
5.09049
5.26955
5.36344
5.47952
5.60648
5.78325
6.08188
6.08377
6.08524
6.35841
6.38088
6.62648
6.68298
6.77128
6.8751
6.95719
7.04618
7.30067
7.30873
7.34684
7.60235
7.64768
7.90826
8.01101
8.23733
8.43068
8.57881
8.71792
8.94478
9.00497
9.21879
9.30007
9.46164
9.57131
9.6507
9.82505
9.99904
10.0723
10.3248
10.3339
10.6171
10.9289
10.951
11.0307
11.2881
11.3332
11.6805
11.6974
11.6995
11.7032
12.0531
12.2043
12.3166
12.45
12.5863
12.7789
12.9962
13.0306
13.2138
13.3977
13.5019
13.6605
13.7778
13.8703
14.0548
14.2319
14.2835
14.4949
14.5636
14.5755
14.5984
14.887
15.051
15.1361
15.3088
15.4803
15.5512
15.7302
15.8207
16.025
16.1514
16.3865
16.4919
16.5911
16.7399
16.8215
17.0932
17.3576
17.438
17.5909
17.7093
17.8779
17.9589
18.1125
18.3164
18.3449
18.5345
18.7067
18.7943
18.8374
19.1242
19.1831
19.4595
19.5478
19.7732
19.7766
19.7792
19.9784
20.0788
20.2909
20.3857
20.553
20.6244
20.6933
20.9692
21.0815
21.2579
21.3829
21.6803
21.7046
21.7507
21.9457
22.0276
22.2253
22.4095
22.6104
22.6697
22.846
23.0111
23.1139
23.1769
23.4422
23.4943
23.7836
23.795
24.0832
24.0898
24.3812
24.4011
24.6888
24.6959
24.9686
24.984
25.2741
25.3126
25.4048
25.5526
25.656
25.7773
25.8537
26.0308
26.1113
26.2988
26.3374
26.4309
26.5618
26.6438
26.7908
26.928
27.0267
27.2978
27.3046
27.3131
27.5535
27.6916
27.7829
27.8536
28.0679
28.1927
28.3348
28.4874
28.6708
28.7615
28.8683
29.0377
29.2765
29.3669
29.5196
29.6718
29.8227
29.9103
30.04
30.17
30.2213
30.4998
30.602
30.868
30.8853
30.8944
31.1516
31.4185
31.4464
31.5011
31.7676
31.8861
32.0485
32.2075
32.4064
32.5448
32.6501
32.9302
33.0151
33.2127
33.5723
33.5978
33.6192
33.9304
34.0011
34.1941
34.3726
34.5704
34.8734
34.8993
34.9182
35.2036
35.4501
35.5578
35.7024
35.8449
36.0191
36.1433
36.2009
36.5436
36.5743
36.6816
36.9138
36.9975
37.2365
37.468
37.5557
37.8165
37.921
37.946
38.0079
38.2677
38.4133
38.5595
38.8872
38.9186
38.96
39.2608
39.501
39.5527
39.6442
39.8403
39.9379
40.1369
40.2915
40.4403
40.5265
40.6224
40.744
40.9303
40.9852
41.2513
41.2583
41.2598
41.5291
41.6067
41.7891
41.9453
42.0044
42.2354
42.2694
42.2983
42.3779
42.4557
42.5517
42.708
42.7993
43.0596
43.0687
43.0906
43.3436
43.5069
43.6215
43.6987
43.9121
44.0667
44.1569
44.2369
44.4005
44.5953
44.6712
44.8528
44.9623
45.0399
45.2399
45.3375
45.6397
45.7028
45.7518
46.1118
46.1161
46.1478
46.45
46.4837
46.5445
46.7458
46.918
47.0111
47.2158
47.2839
47.508
47.5469
47.7943
47.795
47.8085
48.0422
48.0541
48.3174
48.6241
48.6315
48.6512
48.914
49.0167
49.231
49.3361
49.522
49.6623
49.7671
49.838
50.0932
50.1837
50.4095
50.4171
50.63
50.825
50.8729
51.1004
51.1253
51.4044
51.406
51.408
51.6243
51.7339
51.8301
51.8942
52.1274
52.215
52.4029
52.5111
52.6686
52.7989
52.9287
53.0816
53.1852
53.3604
53.4404
53.6368
53.6948
53.9095
53.9488
54.1795
54.2036
54.4432
54.4583
54.6995
54.7141
54.9472
54.9721
55.1807
55.2334
55.4017
55.5041
55.6132
55.7905
55.8194
55.8783
56.0224
56.1005
56.2241
3.90817
4.17784
4.26556
4.37311
4.52494
4.57698
4.70363
4.78789
4.83261
4.99953
5.1813
5.20521
5.22779
5.40365
5.5779
5.58246
5.58852
5.75037
5.88929
5.91028
5.92924
6.07513
6.20274
6.24887
6.36336
6.43316
6.45765
6.63023
6.69773
6.83943
6.9629
7.04702
7.16991
7.23657
7.29318
7.41731
7.55539
7.58521
7.61062
7.74012
7.87769
7.88498
7.89342
8.03748
8.1609
8.19541
8.23106
8.33726
8.4574
8.45905
8.60516
8.64962
8.82418
8.83204
8.85167
8.97973
9.05135
9.15294
9.22561
9.28937
9.35929
9.50165
9.54496
9.56513
9.65875
9.76771
9.79148
9.85173
9.94132
9.98727
10.095
10.1913
10.3844
10.4171
10.4601
10.5891
10.7088
10.7416
10.773
10.9092
11.0535
11.1002
11.1777
11.2476
11.286
11.3924
11.4782
11.5848
11.7582
11.7589
11.7602
11.9306
12.0179
12.1489
12.2549
12.3055
12.4185
12.4213
12.424
12.5563
12.6413
12.7471
12.8363
12.9472
12.9854
13.1399
13.1906
13.3434
13.3569
13.3612
13.4971
13.5465
13.7036
13.7594
13.8492
13.8607
13.9551
14.0189
14.1662
14.2229
14.3928
14.3936
14.3949
14.5644
14.717
14.7276
14.7401
14.8968
15.0407
15.0754
15.1077
15.2488
15.4108
15.4113
15.4121
15.5738
15.6873
15.7391
15.8118
15.9067
15.9753
16.0736
16.2378
16.2596
16.3069
16.4547
16.4991
16.5991
16.6457
16.6846
16.7999
16.9136
16.9741
17.0462
17.1871
17.2415
17.3619
17.436
17.505
17.6502
17.7743
17.8498
17.9313
18.0469
18.1285
18.1989
18.3004
18.3192
18.3377
18.4462
18.5012
18.6516
18.6888
18.7192
18.9016
18.9394
19.1383
19.3267
19.416
19.5125
19.6307
19.7039
19.7733
19.8967
20.0415
20.0864
20.12
20.2763
20.4243
20.4721
20.5795
20.6837
20.7317
20.9186
21.1414
21.2225
21.2741
21.332
21.4535
21.4921
21.5188
21.6828
21.7259
21.7389
21.935
22.0659
22.1571
22.301
22.3804
22.4328
22.5961
22.7869
22.7974
22.816
23.0089
23.0711
23.2216
23.2549
23.3215
23.4112
23.4617
23.6613
23.6622
23.663
23.8717
23.9952
24.0943
24.2661
24.3307
24.5121
24.6143
24.7457
24.8705
25.0477
25.1339
25.2687
25.3674
25.4068
25.5453
25.6101
25.642
25.8075
25.9241
26.0221
26.1692
26.2552
26.3126
26.4179
26.4328
26.4428
26.6168
26.7998
26.8782
26.9433
27.1147
27.3192
27.5342
27.6018
27.7278
27.844
27.9095
28.0661
28.0695
28.2168
28.4021
28.4546
28.643
28.6835
28.6932
28.8838
29.0393
29.092
29.177
29.2923
29.3099
29.324
29.4414
29.5523
29.5724
29.5978
29.7034
29.7797
29.8397
29.9703
29.9714
29.974
30.1
30.1569
30.2351
30.333
30.3661
30.3852
30.5712
30.5889
30.7667
30.7678
30.773
30.936
30.9732
31.1043
31.1779
31.2814
31.3832
31.439
31.5579
31.5869
31.6878
31.7101
31.7198
31.8097
31.9192
31.9391
31.9518
32.1284
32.1672
32.3093
32.399
32.5097
32.6044
32.6913
32.8196
32.8846
32.9492
33.0459
33.124
33.2283
33.3036
33.4702
33.517
33.5552
33.7036
33.7261
33.8246
33.8694
33.88
34.0141
34.0432
34.2096
34.252
34.3035
34.451
34.537
34.6118
34.7084
34.8374
34.894
35.0233
35.0722
35.1534
35.2079
35.2921
35.3705
35.4721
35.5994
35.653
35.7573
35.8299
35.972
36.0185
36.0517
7.04702
7.42027
7.46106
7.58771
7.67094
7.76171
7.91317
7.9728
8.20983
8.27243
8.33616
8.53899
8.67487
8.74672
8.8225
8.94971
9.02809
9.13647
9.26517
9.31677
9.34805
9.51587
9.52794
9.55053
9.72462
9.87834
9.95418
10.0474
10.2154
10.3048
10.5159
10.5948
10.7137
10.8736
11.1355
11.1702
11.181
11.1954
11.5413
11.5631
11.6048
11.8524
12.0438
12.152
12.3032
12.4565
12.5248
12.7517
12.8219
12.8461
13.1424
13.2209
13.2771
13.4892
13.5119
13.5177
13.5793
13.788
13.8158
14.0264
14.1133
14.2538
14.4353
14.4952
14.5357
14.7416
14.773
14.9331
14.9968
15.0087
15.161
15.2178
15.2222
15.2728
15.4746
15.4944
15.5886
15.7164
15.7558
15.9011
16.0325
16.0969
16.3122
16.3189
16.3244
16.5979
16.6267
16.9085
16.9109
16.915
17.1626
17.3064
17.3869
17.5482
17.7116
17.8685
17.9461
18.0697
18.1637
18.305
18.4015
18.5529
18.736
18.8757
19.1005
19.1547
19.2554
19.4194
19.5195
19.6314
19.8093
19.8259
20.0125
20.0523
20.1938
20.2248
20.2508
20.4021
20.4605
20.6605
20.754
21.0124
21.0415
21.102
21.2985
21.3808
21.5721
21.6937
21.8699
21.9173
22.0921
22.2613
22.4287
22.6312
22.6394
22.8502
22.9449
23.1709
23.2632
23.4432
23.5308
23.6894
23.7477
23.8214
23.9694
24.0319
24.296
24.3545
24.4776
24.5856
24.6862
24.8101
24.8714
25.085
25.1459
25.4079
25.4739
25.728
25.7421
25.7452
25.8607
26.0651
26.0719
26.1015
26.3389
26.3874
26.6522
26.7118
26.8284
26.9497
27.0676
27.1908
27.2495
27.548
27.6023
27.694
27.8242
28.0307
28.0472
28.053
28.1467
28.3233
28.3352
28.5409
28.5742
28.7379
28.9562
28.9956
29.0866
29.2379
29.2907
29.5015
29.6327
29.7987
29.8914
29.9966
30.0754
30.1503
30.3583
30.4644
30.647
30.7553
31.0477
31.3551
31.444
31.6542
31.7947
31.9261
32.007
32.2492
32.3107
32.4637
32.5732
32.6314
32.7787
32.9535
32.9907
33.1684
33.316
33.3355
33.3594
33.6698
33.7735
33.9694
34.1557
34.2001
34.4443
34.5056
34.7169
34.857
34.8902
34.9721
35.1823
35.5074
35.5526
35.5866
35.9759
36.0359
27.3192
27.7927
27.8884
27.9896
28.3007
28.3702
28.4432
28.7701
29.0717
29.2188
29.4268
29.6623
29.7948
30.0268
30.1244
30.3753
30.3879
30.3945
30.4395
30.7692
30.8267
31.1225
31.2515
31.4451
31.6591
31.6831
31.7176
31.9274
32.0443
32.1123
32.2269
32.3018
32.4355
32.6579
32.8257
33.0133
33.2066
33.2416
33.4444
33.5658
33.5803
33.5998
33.9397
34.1566
34.169
34.1756
34.3712
34.4441
34.565
34.6803
34.7625
34.9099
34.963
35.1356
35.1614
35.3549
35.3583
35.4107
35.565
35.5751
35.7903
35.8118
36.0438
36.0827
36.3395
36.4069
13.3612
13.5899
13.7017
13.9541
14.0006
14.0598
14.2192
14.3525
14.532
14.6705
14.8529
14.9629
15.1478
15.2503
15.4161
15.5394
15.6608
15.8667
15.9408
16.1912
16.214
16.3292
16.4794
16.5086
16.7408
16.8229
17.0034
17.1302
17.274
17.4237
17.5544
17.6873
17.7883
17.9112
17.9898
18.0638
18.3069
18.4508
18.6127
18.8515
18.9397
19.0186
19.1977
19.2848
19.459
19.6086
19.7021
19.9641
20.0992
20.3056
20.5105
20.6422
20.9046
20.9464
21.0303
21.2512
21.2952
21.3614
21.646
21.8831
21.9267
22.04
22.1989
22.2408
22.3921
22.5863
22.6499
22.999
23.0732
23.0899
23.1161
23.4926
23.6549
23.876
24.1731
24.2593
24.469
24.5992
24.6562
24.8861
24.9825
25.0752
25.1554
25.2691
25.4061
25.7156
25.7839
25.8627
26.126
26.2296
26.5243
26.5558
26.5675
26.6354
26.9828
27.043
27.3445
27.3895
27.5322
27.7002
27.7699
28.0122
28.2235
28.3063
28.533
28.5762
28.5894
28.8288
28.8906
29.0753
29.1672
29.3135
29.3828
29.5072
29.652
29.7908
29.8875
29.9595
30.1935
30.3338
30.3917
30.5061
30.6253
30.676
30.9141
31.006
31.0264
31.3281
31.3466
31.5566
31.6393
31.6457
31.722
31.9208
31.9393
32.205
32.2544
32.5221
32.6135
32.7789
32.9139
33.0841
33.2955
33.3459
33.5859
33.6236
33.8781
33.9322
34.1331
34.2574
34.3695
34.499
34.5566
34.7763
34.8089
34.8149
34.8227
35.1031
35.1961
35.4046
35.5075
35.6253
35.7474
35.8696
35.9987
36.1159
36.287
36.403
36.6354
36.6902
36.8198
36.8784
37.0532
37.1517
37.3661
37.3839
37.5473
37.6255
37.6333
37.6761
37.8058
37.9384
38.0437
18.736
19.0471
19.1283
19.1383
19.2601
19.2742
19.433
19.4764
19.5997
19.6938
19.7238
19.8588
20.0019
20.0411
20.1356
20.2067
20.2563
20.3431
20.42
20.4835
20.5401
20.6312
20.6478
20.7487
20.8006
20.8786
20.9108
20.9967
21.0487
21.1254
21.143
21.242
21.2919
21.4015
21.4275
21.5212
21.5885
21.6676
21.7185
21.8247
21.8421
21.9432
22.025
22.096
22.1792
22.2045
22.2921
22.3742
22.4169
22.4406
22.578
22.6353
22.706
22.7722
22.8443
22.9413
22.9833
23.1421
23.1438
23.1549
23.3143
23.3391
23.478
23.5241
23.6236
23.7152
23.7723
23.8976
23.9055
23.9184
24.0302
24.0514
24.123
24.1729
24.2002
24.3253
24.5345
24.6902
24.7365
24.7833
24.8802
24.9217
25.0076
25.0519
25.19
25.2008
25.2209
25.3688
25.4742
25.5122
25.6597
25.6732
25.8362
25.8536
26.0087
26.0256
26.1831
26.1934
26.2133
26.3117
26.4029
26.4299
26.4542
26.5882
26.7079
26.7269
26.7482
26.8588
26.9811
27.1103
27.1965
27.2434
27.338
27.3838
27.4037
27.5314
27.6091
27.6796
27.8375
27.8578
27.8654
27.9031
28.0436
28.2264
28.4268
28.4976
28.6475
28.6842
28.7882
28.8445
28.8623
28.9277
28.9966
29.0837
29.2951
29.2959
29.2963
29.2976
29.4657
29.5475
29.7728
29.7754
29.7771
29.9907
30.0949
30.1822
30.2073
30.259
30.3882
30.4702
30.5041
30.6
30.6589
30.7015
30.7588
30.8218
30.871
31.0067
31.0648
31.1326
31.2419
31.38
31.4773
31.5919
31.6754
31.7293
31.8118
31.8523
31.8835
32.0569
32.0762
32.1013
32.243
32.4082
32.6075
32.6238
32.7879
32.8349
32.9522
33.0511
33.1041
33.255
33.4177
33.444
33.5545
33.6466
33.7034
33.7554
33.8609
33.9507
34.0089
34.1829
34.214
34.2494
34.4231
34.5183
34.5512
34.6484
34.677
34.7712
34.8491
35.0021
35.0259
35.0898
35.1749
35.2289
35.3212
35.4532
35.4753
35.4985
35.6419
35.7859
35.812
35.8695
35.9868
36.0303
36.1728
36.2241
36.3616
36.382
36.5063
36.7175
36.9582
36.9965
37.1412
37.2663
37.3101
37.4512
37.5303
37.6823
37.7708
37.9667
38.0425
38.2581
38.346
38.4518
38.5343
38.6685
38.7731
38.8371
33.305
33.5239
33.5887
33.6899
33.7797
33.8533
33.944
34.0772
34.0775
34.08
34.2217
34.2337
34.4077
34.4197
34.4777
34.5505
34.5634
34.6637
34.7212
34.8288
34.9017
35.021
35.1018
35.2611
35.2752
35.3252
35.4374
35.4655
35.5911
35.6458
35.7554
35.8133
35.9593
35.9908
36.0113
36.1949
36.2
36.2006
36.2015
36.3724
36.4881
36.519
36.5766
36.6301
36.7306
36.764
36.7717
36.8029
36.9237
36.963
37.0459
37.1756
37.1938
37.2043
37.409
37.4175
37.46
37.6292
37.6586
37.874
37.9504
38.0742
38.1594
38.2928
38.3833
38.4407
38.4852
38.5616
38.6177
38.6745
38.7779
38.8133
38.8299
38.8665
39.0037
39.0804
39.2139
39.2946
39.3678
39.4288
39.5028
39.5749
39.63
39.6994
39.7664
39.8643
39.9485
40.0153
40.0568
40.2247
40.2249
40.2251
40.2265
40.4078
40.4495
40.588
40.7038
40.7828
40.8612
40.9114
41.0628
41.0633
41.0638
41.2302
41.2857
41.3493
41.467
41.5299
41.6938
41.6947
41.6949
29.4657
29.5734
29.6679
29.9175
29.9297
29.938
30.16
30.4214
30.6693
30.7461
30.8918
31.0598
31.1277
31.1886
31.3765
31.4667
31.7619
32.0501
32.1746
32.3442
32.6338
32.6692
32.7027
33.0126
33.2925
33.3589
33.4634
33.6871
33.7631
34.0136
34.0344
34.2192
34.329
34.423
34.6319
34.8295
35.0263
35.0364
35.0394
35.0598
35.2684
35.2909
35.3232
35.4719
35.5846
35.7521
35.8416
36.0104
36.0702
36.234
36.2827
36.4482
36.484
36.6791
36.8646
36.94
37.048
37.2294
37.398
37.5223
37.5735
37.6473
37.7675
37.8862
37.9736
38.0511
38.1989
38.3409
38.4296
38.5779
38.6434
38.6755
38.8578
38.9392
39.1291
39.1461
39.1847
39.3234
39.3995
39.4927
39.606
39.6587
39.7181
39.8241
39.8939
39.9897
30.4998
30.9715
31.1155
31.4199
31.5301
31.6785
31.8645
32.1209
32.1725
32.3911
32.4228
32.5879
32.7924
32.8486
32.9396
33.1752
33.2824
33.4996
33.5893
33.7987
34.1758
34.1944
34.2173
34.6123
34.857
35.0256
35.4187
35.4614
35.5313
35.9174
36.2102
36.2306
36.6194
36.6263
36.6373
37.0489
37.3668
37.4407
37.5304
37.8189
38.1235
38.1763
38.2141
38.5406
38.9129
38.9286
38.9387
39.2781
39.3428
39.5676
39.7314
39.9397
22.3804
22.7693
22.928
23.2787
23.4074
23.5179
23.9286
24.0114
24.2178
24.5198
24.6147
25.0894
25.123
25.6164
25.9267
26.0954
26.355
26.3618
26.3908
26.6515
26.6906
26.7905
26.9821
27.072
27.2467
27.432
27.5029
27.7485
27.7718
28.0361
28.1209
28.3219
28.648
28.6572
28.6619
29.037
29.0494
29.4071
29.4251
29.4996
29.7281
29.7748
29.9528
30.1058
30.1546
30.4966
30.8225
30.8648
31.1712
31.237
31.5095
31.6359
31.7998
31.9154
32.1847
32.3395
32.4815
32.6294
32.7625
32.9031
33.0255
33.1604
33.2624
33.425
33.4927
33.7396
33.9955
34.114
34.2097
34.3314
34.3887
34.6399
34.6558
34.6605
34.9783
35.0313
35.341
35.3683
35.4334
35.6991
35.8618
36.0867
36.3672
36.4945
36.6295
36.94
37.1621
37.2201
37.3673
37.4767
37.5089
37.795
37.8651
38.0792
38.1595
38.1853
38.445
38.5004
38.7418
38.7937
38.9817
39.0644
39.1891
39.2735
39.4741
39.5421
39.7809
39.7872
39.7924
40.0718
40.0954
40.3223
40.3513
40.5386
40.598
40.7437
40.8678
40.9572
32.8846
33.1549
33.305
33.5088
33.7481
33.8756
34.2097
34.2587
34.3192
34.6015
34.8583
34.9765
35.2955
35.357
35.6132
35.7345
35.7612
35.8056
36.1068
36.2132
36.4648
36.6472
36.863
36.9233
36.9675
37.2368
37.3655
37.6353
37.6536
37.6934
37.9459
38.0194
38.1698
38.316
38.4288
38.6292
38.878
38.8905
38.8977
39.2123
39.3487
39.6193
39.6861
39.8592
39.9893
40.0336
40.2428
40.3176
40.4889
40.6582
40.7513
40.8679
41.045
41.0672
34.8993
35.0748
35.0798
35.2397
35.3738
35.3948
35.4958
35.5758
35.5873
35.6134
35.8026
35.886
35.9727
36.0724
36.1437
36.259
36.3524
36.4533
36.5527
36.6098
36.7503
36.8336
36.8988
36.9562
37.0781
37.2723
37.3069
37.3261
37.5518
37.5644
37.7195
37.8005
37.887
37.9281
38.09
38.0972
38.2645
38.3137
38.511
38.5976
38.7248
38.7727
38.9141
38.9994
39.1605
39.299
39.3846
39.507
39.6528
39.7314
39.949
39.9789
40.1518
40.2214
40.2342
40.4618
40.5069
40.6162
40.6894
40.7531
40.8641
40.9238
41.1183
41.1997
41.3002
41.4233
41.4953
41.6323
41.7129
41.8247
41.9285
42.0618
42.2381
42.3079
42.389
42.5146
42.6479
42.7204
42.9323
42.9554
42.9832
43.1622
43.3268
43.3625
43.3772
43.4407
43.6032
43.6535
43.8154
43.951
44.0374
26.2988
26.4539
26.4846
26.6187
26.6623
26.8024
26.8134
26.8168
26.9638
26.9823
27.0993
27.2535
27.263
27.274
27.4456
27.5752
27.595
27.6194
27.7336
27.869
27.8952
27.9092
27.9832
28.0497
28.0782
28.1706
28.2375
28.3205
28.4315
28.4352
28.5607
28.5822
28.6254
28.7399
28.8371
28.8817
28.9265
29.0191
29.1255
29.1651
29.2021
29.3256
29.4613
29.4684
29.4746
29.6014
29.7127
29.737
29.7803
29.8855
29.9376
30.0477
30.1765
30.2124
30.2874
30.3716
30.4045
30.5403
30.6175
30.7254
30.8315
30.9379
31.0561
31.1745
31.225
31.32
31.3959
31.5025
31.5944
31.721
31.8029
31.9376
31.9508
32.1325
32.1406
32.1488
32.3618
32.3905
32.5352
32.556
32.6672
32.7599
32.7996
32.901
32.9784
33.0974
33.1533
33.3206
33.3572
33.37
33.5352
33.5359
33.6511
33.7346
33.8079
33.931
33.9937
34.1073
34.1987
34.2549
34.3672
34.4898
34.5145
34.6752
34.6923
34.6943
34.8941
34.9145
35.1368
35.1833
35.2395
35.3599
35.418
35.5101
35.6051
35.6983
35.806
35.8998
36.0077
36.1028
36.2124
36.306
36.411
36.5051
36.5548
36.6907
36.7377
36.8941
36.9213
37.0233
37.0892
37.1093
37.2653
37.3484
37.4508
37.5846
37.6395
37.82
37.8225
37.8304
37.9962
38.0396
38.1751
38.2711
38.3628
38.5201
38.5477
38.6165
38.7293
38.7729
38.9088
39.0257
39.0863
39.2268
39.2635
39.2788
39.442
39.5329
39.6208
39.7896
39.8007
39.8269
39.9818
40.0451
40.1617
40.2926
40.34
40.4979
40.5152
40.5206
40.682
40.7332
40.8334
40.9469
40.977
41.0291
41.1046
41.2646
41.2658
41.2671
41.4564
41.5835
41.6312
41.6935
41.8001
41.8959
41.9593
42.0045
42.1063
42.1781
42.3376
42.3567
42.3833
42.5179
42.5588
42.6379
42.7052
42.8099
42.9086
42.9958
43.1507
43.1666
43.1828
43.308
43.423
43.4313
43.4416
43.5701
43.6742
43.7154
43.7854
43.8275
43.8752
43.9491
43.9717
44.0511
44.1324
44.1663
44.2707
44.3509
44.3779
44.4825
44.531
40.3619
40.5503
40.6125
40.7349
40.8798
40.9103
40.967
41.0737
41.1278
41.2361
41.3665
41.4024
41.4918
41.5696
41.6006
41.7336
41.8629
41.9154
41.9587
42.0599
42.1311
42.1938
42.2731
42.3527
42.4521
42.4958
42.5235
42.6543
42.7931
42.828
42.8979
42.9685
43.0406
43.1249
43.1564
43.3414
43.343
43.3433
43.5172
43.5327
43.7081
43.7252
43.8941
43.9145
44.0817
44.1293
44.2933
44.3364
44.3479
44.3903
44.4922
44.5406
44.6189
44.7123
44.8005
44.8636
44.9468
45.0272
45.097
45.2084
45.3097
45.3525
45.4532
45.4673
45.5617
45.7036
45.7588
45.8111
45.9362
46.0598
46.0834
46.1189
46.2449
46.3366
46.4302
46.6123
46.6541
46.6713
46.7662
46.8416
46.8616
46.9692
47.0585
47.1549
47.3034
47.3621
47.4454
47.5041
47.612
47.6827
47.7722
47.8651
47.9842
48.0364
48.1841
48.1917
48.1946
48.3376
48.5044
48.5265
48.5501
48.7069
48.8
48.8753
48.9988
49.0313
49.0603
49.179
49.291
49.3381
49.4045
49.5166
49.5889
49.7041
49.8894
49.8903
49.8908
50.0785
50.1996
50.2627
50.357
50.4473
50.5091
50.637
50.7599
50.7999
50.8411
50.9529
51.1037
51.1115
51.117
51.275
51.3968
51.4454
51.5272
51.6247
51.6811
51.8132
51.9639
52.0106
52.1283
52.2133
52.2489
52.4273
52.6226
52.6584
52.7122
52.8861
52.9905
53.1044
39.299
39.4881
39.5123
39.6449
39.6804
39.743
39.8205
39.9463
39.9564
39.994
40.1111
40.1403
40.276
40.3262
40.3849
40.4135
40.501
40.5246
40.6697
40.6905
40.8506
40.8869
41.0124
41.0901
41.1701
41.3105
41.3373
41.4793
41.5164
41.5222
41.7152
41.7254
41.7483
41.8704
41.9252
41.9921
42.0809
42.1398
42.2531
42.3171
42.4432
42.507
42.636
42.6955
42.8266
42.8905
43.0208
43.0885
43.2192
43.2623
43.326
43.404
43.5254
43.5536
43.6598
43.727
43.7428
43.8782
43.9134
43.9174
43.9371
44.0725
44.1107
44.2385
44.3572
44.3787
44.421
44.5046
44.5652
44.6508
44.722
44.7881
44.883
44.9352
44.9588
45.0152
45.1063
45.1822
45.2091
45.2396
45.3224
45.3758
45.4969
45.5395
45.5838
45.6118
45.6783
45.7369
45.86
45.8938
46.0563
46.0887
46.1808
46.2499
46.273
46.4059
46.4512
46.5819
46.6481
46.7713
46.8843
46.936
47.0727
47.0965
47.1051
47.2594
47.3139
47.4238
47.5275
47.5875
47.7426
47.7528
47.7569
47.9245
48.0145
48.1136
48.2372
48.2847
48.4303
48.432
48.4325
48.542
48.5729
48.6316
48.6622
48.7941
48.8131
48.8209
48.9346
48.9964
49.052
49.092
49.195
49.2539