# vtk DataFile Version 3.0
Tree
ASCII
DATASET POLYDATA
POINTS 400 float
0 2000 500
227.631 -834.275 500
113.816 582.862 500
1730.86 1925.81 500
170.723 -125.706 500
-1979.7 -50.9833 500
-904.488 -88.3448 500
-1653.62 -831.17 500
-1442.09 -69.664 500
-1452.18 639.51 500
922.338 1254.34 500
401.622 1870.78 500
-1447.14 284.923 500
-1175.81 1863.53 500
-1279.05 -459.757 500
-825.288 -1541.33 500
518.077 918.599 500
1972.44 -104.636 500
-1091.77 -274.051 500
-1011.33 -559.343 500
1245.26 406.982 500
1560.93 -604.428 500
-1052.17 -1000.54 500
-1995.5 -1977.16 500
199.177 -479.991 500
737.78 -467.247 500
-938.73 -1270.94 500
-1023.41 -1455.32 500
468.479 -473.619 500
1050.72 -695.613 500
56.9078 1291.43 500
-239.582 1520.3 500
720.207 1086.47 500
503.856 1344.41 500
881.667 662.791 500
706.216 385.362 500
1403.09 -98.7232 500
1330.44 60.1963 500
-882.009 -1406.13 500
-1025.89 -1901.7 500
661.98 1562.56 500
626.255 1869.62 500
-1311.47 1074.23 500
-1793.26 1969.41 500
-1552.37 1521.82 500
-1628.57 1846.26 500
-1243.64 1468.88 500
-1046.88 1882.54 500
1482.01 -351.576 500
1447.67 -1185.81 500
1063.46 534.886 500
1633.94 488.382 500
-366.883 -107.026 500
-448.015 384.765 500
-1051.55 -416.697 500
-866.741 -590.167 500
1326.6 1590.07 500
1939.01 1740.02 500
-1466.34 -645.464 500
-1720.37 -1181.38 500
1464.84 -768.693 500
1307.08 -836.685 500
-1444.62 107.629 500
-1422.13 257.007 500
1456.26 -977.251 500
1901.52 -1384.31 500
-1431.92 1298.02 500
-1451.07 1216.71 500
-1145.26 1675.71 500
-1084.13 1573.49 500
-959.146 -503.432 500
-672.617 -390.485 500
1632.8 1665.05 500
1764.97 1522.9 500
531.801 1716.67 500
128.873 1974.11 500
1451.96 -1081.53 500
1110.02 -1972.08 500
-1379.31 679.575 500
-862.826 954.137 500
644.117 1716.09 500
955.838 1729.94 500
-953.949 -1653.92 500
-1298.35 -1821.08 500
1280.99 -1526.81 500
590.089 -1597.26 500
1366.77 -19.2634 500
980.618 122.209 500
-98.0797 -116.366 500
-300.905 51.7656 500
-1413.22 482.249 500
-1231.14 652.908 500
-1371.7 1186.12 500
-1344.13 1320.05 500
799.978 1723.01 500
850.089 1765.24 500
935.54 -1562.03 500
636.584 -1854.69 500
-1114.7 1624.6 500
-772.391 1310.82 500
793.942 524.076 500
845.419 444.965 500
-853.648 -1473.73 500
-472.449 -1610.04 500
1195.51 -1749.44 500
1175.51 -1783.14 500
972.565 598.838 500
991.237 515.64 500
1348.7 511.634 500
1569.3 847.624 500
-199.492 -32.3001 500
-177.238 129.368 500
85.3616 937.147 500
-90.4118 515.484 500
786.062 -1708.36 500
35.1955 -1981.09 500
-917.979 -1530.03 500
-862.843 -1692.99 500
-1590.47 1684.04 500
-1407.08 1701.51 500
1173.69 51.4728 500
1174.63 192.168 500
792.159 1408.45 500
922.706 1310.46 500
-1096.07 1779.12 500
-782.819 1968.91 500
727.069 1485.5 500
629.216 1434.71 500
-232.481 -111.696 500
-227.829 -485.158 500
-912.943 -546.8 500
-699.292 -663.937 500
1077.16 86.8409 500
964.52 21.3552 500
-2.52509 726.315 500
7.34134 776.364 500
-1121.07 816.856 500
-598.559 746.68 500
1678.89 -1180.78 500
1660.88 -1596.57 500
1124.47 1422.2 500
1493.09 1324.15 500
-1126.15 -1737.5 500
-1444 -1424.23 500
-806.118 -605.368 500
-624.162 -560.231 500
410.629 -1844.73 500
221.591 -1941.68 500
1108.27 -1544.42 500
1043.45 -1613.27 500
213.404 -657.133 500
534.089 -874.472 500
-1710.9 -60.3237 500
-1803.35 -203.58 500
220.518 -745.704 500
264.658 -1237.16 500
-1559.98 -738.317 500
-1551.18 -703.615 500
-1845.3 -55.6535 500
-1937.2 436.718 500
759.599 -584.616 500
999.084 -525.346 500
-1071.66 -345.374 500
-1076.02 -457.007 500
315.946 750.731 500
405.707 1082.74 500
-1185.41 -366.904 500
-1373.28 -396.222 500
821.272 1170.4 500
1120.9 1065.79 500
1225.53 1506.14 500
1332.95 1701.51 500
905.16 -640.114 500
802.48 -732.531 500
762.815 -1579.65 500
751.446 -1336.1 500
242.588 -991.432 500
329.799 -1156.55 500
-91.3371 1405.87 500
-154.318 1278.71 500
1125.42 69.1568 500
1148.79 70.8889 500
466.711 1793.72 500
455.229 1960.66 500
-943.543 1467.71 500
-654.595 1390.74 500
-1322.18 567.578 500
-1105.37 604.528 500
1567.57 -1079.02 500
1876.84 -814.513 500
-752.705 -634.653 500
-423.045 -911.243 500
1459 679.629 500
1945.87 831.636 500
-939.445 1874.02 500
-574.468 1991.88 500
-1576.5 -64.9939 500
-1495.11 -152.204 500
-1593.35 -913.422 500
-1662.36 -1020.57 500
1238.25 -1638.12 500
1238.97 -1619.83 500
1366.48 -1304.17 500
1154.36 -1329.41 500
417.011 834.665 500
477.879 774.768 500
750.079 454.719 500
801.205 271.324 500
-1212.25 -1779.29 500
-1149.42 -1850.37 500
1669.88 -1388.68 500
1937.45 -1985.69 500
612.032 1215.44 500
320.194 1375.57 500
1698.89 1593.97 500
1608.83 1403.68 500
214.881 666.797 500
306.762 372.846 500
-1345.39 876.901 500
-1141.9 1036.83 500
1722.21 -946.765 500
1723.5 -929.686 500
-815.881 -446.959 500
-737.368 -263.966 500
598.345 -1776.54 500
316.086 -1868.15 500
-635.685 -97.6851 500
-575.352 -79.2265 500
-1367.7 524.914 500
-1293.2 556.794 500
1665.38 -1492.62 500
1551.86 -1788.09 500
-663.049 -1541.89 500
-477.152 -1972.18 500
1308.78 1373.18 500
1538.17 1176.99 500
-46.4684 620.9 500
64.5543 498.633 500
711.323 -1781.53 500
583.556 -1975.98 500
596.89 1639.61 500
520.973 1694.05 500
-1523.84 -1488.85 500
-1743.31 -1919.91 500
231.553 -868.568 500
94.9814 -1012.04 500
-230.155 -298.427 500
-88.1565 -559.58 500
-995.45 -1135.74 500
-925.263 -1233.48 500
-991.946 885.496 500
-659.109 1072.92 500
-825.527 979.208 500
-829.933 1085.43 500
-587.875 -772.948 500
-226.645 -923.911 500
-407.449 138.87 500
-350.07 447.923 500
-1891.25 190.532 500
-1930.17 870.387 500
-1757.12 -131.952 500
-1841.13 -323.424 500
775.642 363.022 500
673.302 115.539 500
1423.47 1275.08 500
1596.34 1068.05 500
853.82 -686.323 500
666.226 -844.889 500
-1288 -1244.7 500
-1331.34 -1188.09 500
-1180.83 -1814.83 500
-1140.81 -1987.08 500
-1498.77 1692.77 500
-1321.57 1627.22 500
760.023 -765.606 500
821.2 -1069.74 500
1324.18 154.129 500
1399.42 266.911 500
457.216 -1822.35 500
356.474 -1767.79 500
877.908 1726.48 500
1046.45 1854.02 500
1018.01 566.862 500
1113.56 491.165 500
1491.32 500.008 500
1830.84 496.238 500
713.124 -805.247 500
613.22 -747.082 500
1442.55 -225.149 500
1360.75 -422.468 500
222.912 -1912.91 500
126.426 -1842.88 500
-1017.76 1826.57 500
-952.466 1772.33 500
748.693 -1744.94 500
739.572 -1794.47 500
-407.26 -848.429 500
-96.7775 -908.052 500
-165.46 1463.08 500
-394.872 1363.59 500
1644.89 -1012.89 500
1619.13 -969.659 500
142.269 228.578 500
183.138 -155.001 500
790.611 -917.673 500
715.514 -1139.74 500
977.94 -667.864 500
1144.01 -770.169 500
1653.86 1498.83 500
1763.35 1303.58 500
28.4539 1645.72 500
124.131 1285.32 500
1608.85 151.173 500
1957.93 133.01 500
-387.166 15.9221 500
-403.751 134.545 500
927.116 630.814 500
1059.49 796.302 500
-1040.05 -1695.71 500
-1108.09 -1548.36 500
129.054 -1947 500
-169.193 -1747.62 500
-1868.27 67.4394 500
-1764.56 243.487 500
728.147 420.041 500
586.081 370.768 500
1462.28 -288.362 500
1606.19 -271.204 500
-1372.7 -552.611 500
-1428.44 -682.766 500
-758.349 -1507.81 500
-674.457 -1635.41 500
753.063 -1028.71 500
587.362 -1174.88 500
14.2269 1822.86 500
-149.12 1775.45 500
805.906 -993.706 500
961.754 -1191.15 500
614.039 -529.117 500
559.915 -583.805 500
883.83 -1092.43 500
848.349 -1269.78 500
-128.398 1434.47 500
-145.351 1395.77 500
-1910.71 530.46 500
-1745.76 742.887 500
-1656.86 -1047.4 500
-1947.35 -1420.22 500
1790.2 -1282.55 500
1897.99 -1217.85 500
-1920.44 700.423 500
-1989.51 749.175 500
1534.24 -279.783 500
1741.18 -292.386 500
-1194.45 1572.29 500
-1203.2 1533.2 500
-1250.19 748.215 500
-967.553 734.296 500
1528.73 1757.94 500
1537.27 1869.11 500
253.623 -1114.3 500
-50.2925 -1370.91 500
724.472 239.28 500
667.521 -10.9659 500
373.747 -765.802 500
435.531 -964.376 500
-1277.56 1271.55 500
-1237.99 1291.5 500
-799.069 1429.22 500
-622.996 1259.63 500
-756.956 1932.95 500
-671.272 1850.55 500
1427.05 279.077 500
1475.7 189.588 500
1785.91 1702.53 500
1808.92 1664.78 500
-1672.81 1745.61 500
-1953.28 1545.38 500
879.342 -554.981 500
1156.97 -503.197 500
1460.55 -872.972 500
1488.11 -859.403 500
260.821 519.821 500
436.423 508.632 500
-1396.26 580.912 500
-1515.43 743.143 500
1323.73 -1415.49 500
1351.94 -1381.16 500
101.665 -1242.6 500
-189.401 -1359.35 500
-299.682 -109.361 500
-364.088 -160.254 500
-1625.11 -980.411 500
-1493.32 -1089.79 500
619.142 1002.53 500
557.833 1038.94 500
156.496 51.4359 500
108.069 5.91905 500
237.851 593.309 500
244.029 578.079 500
LINES 399 1197
2 154 1
2 112 2
2 358 3
2 396 4
2 158 5
2 226 6
2 156 7
2 6 8
2 12 9
2 168 10
2 182 11
2 62 12
2 46 13
2 166 14
2 102 15
2 204 16
2 312 17
2 6 18
2 54 19
2 50 20
2 48 21
2 14 22
2 242 23
2 4 24
2 28 25
2 248 26
2 26 27
2 24 28
2 306 29
2 310 30
2 298 31
2 394 32
2 212 33
2 16 34
2 324 35
2 276 36
2 86 37
2 26 38
2 82 39
2 126 40
2 80 41
2 218 42
2 376 43
2 66 44
2 118 45
2 366 46
2 124 47
2 326 48
2 76 49
2 282 50
2 284 51
2 390 52
2 256 53
2 162 54
2 130 55
2 170 56
2 374 57
2 328 58
2 346 59
2 48 60
2 60 61
2 8 62
2 62 63
2 380 64
2 348 65
2 92 66
2 66 67
2 354 68
2 98 69
2 54 70
2 222 71
2 56 72
2 214 73
2 240 74
2 74 75
2 64 76
2 104 77
2 384 78
2 250 79
2 40 80
2 280 81
2 116 82
2 208 83
2 386 84
2 174 85
2 36 86
2 132 87
2 4 88
2 110 89
2 12 90
2 186 91
2 42 92
2 92 93
2 80 94
2 94 95
2 148 96
2 238 97
2 68 98
2 184 99
2 34 100
2 100 101
2 38 102
2 232 103
2 200 104
2 104 105
2 316 106
2 106 107
2 50 108
2 192 109
2 88 110
2 110 111
2 30 112
2 236 113
2 96 114
2 320 115
2 38 116
2 116 117
2 44 118
2 272 119
2 86 120
2 120 121
2 10 122
2 122 123
2 68 124
2 194 125
2 122 126
2 126 127
2 88 128
2 246 129
2 70 130
2 190 131
2 180 132
2 132 133
2 112 134
2 134 135
2 356 136
2 136 137
2 188 138
2 230 139
2 10 140
2 234 141
2 318 142
2 142 143
2 130 144
2 144 145
2 224 146
2 146 147
2 84 148
2 148 149
2 24 150
2 364 151
2 196 152
2 260 153
2 150 154
2 360 155
2 58 156
2 156 157
2 152 158
2 258 159
2 338 160
2 378 161
2 18 162
2 162 163
2 216 164
2 164 165
2 18 166
2 166 167
2 32 168
2 168 169
2 140 170
2 170 171
2 160 172
2 266 173
2 96 174
2 174 175
2 244 176
2 176 177
2 30 178
2 178 179
2 120 180
2 180 181
2 74 182
2 182 183
2 98 184
2 368 185
2 228 186
2 186 187
2 64 188
2 220 189
2 144 190
2 254 191
2 108 192
2 192 193
2 292 194
2 370 195
2 8 196
2 196 197
2 58 198
2 198 199
2 84 200
2 200 201
2 76 202
2 202 203
2 164 204
2 204 205
2 100 206
2 262 207
2 142 208
2 270 209
2 138 210
2 210 211
2 32 212
2 212 213
2 72 214
2 308 215
2 2 216
2 382 217
2 78 218
2 218 219
2 300 220
2 220 221
2 70 222
2 222 223
2 114 224
2 278 225
2 52 226
2 226 227
2 90 228
2 228 229
2 210 230
2 230 231
2 330 232
2 232 233
2 140 234
2 264 235
2 134 236
2 236 237
2 294 238
2 238 239
2 40 240
2 240 241
2 268 242
2 242 243
2 154 244
2 244 245
2 128 246
2 246 247
2 22 248
2 248 249
2 136 250
2 252 251
2 250 252
2 252 253
2 190 254
2 296 255
2 314 256
2 256 257
2 322 258
2 350 259
2 152 260
2 260 261
2 206 262
2 362 263
2 234 264
2 264 265
2 172 266
2 286 267
2 22 268
2 268 269
2 208 270
2 270 271
2 118 272
2 272 273
2 266 274
2 336 275
2 20 276
2 276 277
2 224 278
2 278 279
2 94 280
2 280 281
2 106 282
2 282 283
2 108 284
2 284 285
2 274 286
2 286 287
2 36 288
2 288 289
2 146 290
2 290 291
2 124 292
2 292 293
2 114 294
2 294 295
2 254 296
2 296 297
2 342 298
2 298 299
2 188 300
2 300 301
2 2 302
2 302 303
2 274 304
2 332 305
2 172 306
2 306 307
2 214 308
2 308 309
2 334 310
2 310 311
2 372 312
2 312 313
2 52 314
2 314 315
2 34 316
2 316 317
2 82 318
2 318 319
2 290 320
2 320 321
2 158 322
2 322 323
2 206 324
2 324 325
2 288 326
2 352 327
2 14 328
2 328 329
2 102 330
2 330 331
2 304 332
2 332 333
2 0 334
2 334 335
2 304 336
2 340 337
2 28 338
2 338 339
2 336 340
2 340 341
2 178 342
2 342 343
2 258 344
2 344 345
2 392 346
2 346 347
2 138 348
2 348 349
2 344 350
2 350 351
2 326 352
2 352 353
2 46 354
2 354 355
2 78 356
2 356 357
2 56 358
2 358 359
2 176 360
2 388 361
2 262 362
2 362 363
2 150 364
2 364 365
2 42 366
2 366 367
2 184 368
2 368 369
2 194 370
2 370 371
2 20 372
2 372 373
2 72 374
2 374 375
2 44 376
2 376 377
2 160 378
2 378 379
2 60 380
2 380 381
2 398 382
2 382 383
2 90 384
2 384 385
2 202 386
2 386 387
2 360 388
2 388 389
2 128 390
2 390 391
2 198 392
2 392 393
2 16 394
2 394 395
2 302 396
2 396 397
2 216 398
2 398 399
CELL_DATA 399
SCALARS radius float
LOOKUP_TABLE default
3.42243
30.2547
5.7987
25.3023
4.16945
23.4588
5.05619
19.4555
4.96211
13.9699
4.68298
18.1705
6.27691
16.2569
4.07192
22.353
5.71748
17.7004
3.92141
19.1618
4.58147
14.9429
7.4328
13.8865
4.40407
13.5357
4.87517
12.0845
4.06091
30.3963
3.58356
14.3976
4.04476
20.1329
3.13343
18.7547
3.54531
13.3215
5.90206
10.1929
4.56042
16.4379
6.7667
11.2788
6.00841
14.0973
5.20122
18.0784
3.99991
19.6294
4.27501
23.6303
4.61668
10.4351
3.37687
10.3015
5.97817
9.6413
5.21997
17.9798
4.32853
18.2316
3.92928
17.8715
5.52754
11.4631
4.14991
13.5822
4.29349
10.2471
4.69932
9.26655
4.63763
7.85441
6.14229
16.1572
6.89398
17.6712
5.02618
8.02268
4.81359
11.3452
5.64608
15.8603
6.06051
7.72776
5.03269
23.8233
3.84196
18.0463
4.41753
11.6936
4.52611
7.4979
4.20666
15.1252
5.56562
10.4957
6.74527
7.78014
3.40395
9.17796
5.82811
7.44225
4.38915
19.6885
3.08873
8.0812
4.63733
4.97727
4.05332
30.3202
4.05963
14.3426
6.89855
11.674
5.07496
9.02728
5.7603
7.47056
4.69748
10.5446
3.96515
11.0505
6.49064
10.3543
3.71095
23.7507
4.16869
9.45919
3.58746
6.5399
5.33968
5.64854
2.92751
9.34882
6.35134
10.4676
5.06904
11.5826
4.53634
10.2858
7.47333
9.3135
4.63454
12.1792
6.86847
15.2489
4.40799
9.70121
4.64861
10.7757
3.94285
8.90688
4.35023
5.62392
3.64968
10.2274
5.27559
11.7974
4.34167
10.5733
3.57622
22.416
4.1133
16.341
4.06274
14.108
4.3383
10.5677
4.43046
11.2075
3.68061
7.98829
6.59738
8.35343
4.53782
5.94745
3.59395
6.79162
3.22548
6.32318
5.31469
10.2505
6.80311
6.0192
5.09002
11.4218
6.28849
8.91408
5.38474
6.69618
5.85314
10.2537
7.79528
10.9258
3.75729
8.95587
4.61464
7.62772
3.16125
16.0751
4.98107
22.3697
2.9295
7.55658
3.82162
8.75399
5.108
9.40059
7.37087
5.60962
4.7965
7.93546
5.25192
22.5046
3.90535
16.5876
4.9662
6.60034
3.38721
6.12354
5.01119
13.3509
6.79895
23.4735
2.89409
6.46011
3.72098
7.5495
6.69457
8.28929
7.18947
7.20301
4.79338
5.37321
4.45178
7.8646
6.79717
8.15641
3.87241
9.00035
6.82885
8.73516
4.37286
5.59458
4.68243
13.6631
4.13499
8.24689
6.41396
7.57063
5.54013
8.71603
5.92508
5.99546
4.89252
9.60497
6.74771
5.66111
4.93424
6.8345
4.64474
6.54498
5.54217
10.6486
4.20579
9.22858
3.84584
7.88829
7.09778
8.03495
6.89368
10.5
4.59161
18.8011
3.66099
8.30665
6.3733
7.02764
6.17578
19.6632
3.39299
6.10465
5.30586
5.78855
4.92645
18.3067
4.27792
11.4026
6.67603
10.6522
5.07428
8.29471
4.38393
7.96872
6.67948
5.21902
4.58103
7.00073
3.81598
25.3528
4.2391
9.8774
5.34148
5.85077
5.10846
7.36785
6.34218
30.4185
3.95003
6.99976
5.38393
6.38921
3.56506
19.7379
3.86038
10.7856
5.50071
10.5821
9.49753
9.99099
4.80863
4.8239
4.33541
18.2285
3.59303
9.8644
3.99297
8.90261
5.14273
7.3532
6.2589
30.4306
3.22468
8.27231
5.87587
11.8863
3.34498
7.771
6.43453
5.47318
2.79336
9.04212
6.3021
7.83816
6.97486
6.81281
5.28152
7.87829
5.66446
5.29469
4.673
13.6697
3.65221
9.84467
5.15553
6.67564
4.68016
7.88083
5.53024
6.41044
5.46507
5.90984
4.73193
14.1657
3.44741
9.16624
7.69297
9.30101
6.91689
7.30567
3.6078
6.66444
4.35063
8.87547
7.3019
6.1637
5.34061
17.8958
2.85577
5.00524
4.03776
17.766
4.47033
15.9141
3.44002
7.4116
6.19714
23.6467
3.02322
8.52729
5.17399
14.4357
2.87595
25.3132
2.75797
5.11944
2.06302
