# vtk DataFile Version 3.0
Tree
ASCII
DATASET POLYDATA
POINTS 260 float
0 0 0.0287941
0.0140818 0.024017 -0.0259948
0.00256221 0.00010514 0.00154436
-0.00291935 -0.0202105 -0.0215645
-0.00308634 -0.00381345 0.0190864
-0.0269867 -0.0274417 0.0120064
-0.000925902 -0.00114404 0.0258818
0.0279792 0.0156412 0.0221424
-0.00290427 0.00103739 0.00928353
-0.0159072 0.0210389 -0.00707897
-0.00243821 -0.00301263 0.021125
0.0249538 -0.0282544 -0.00341975
-0.000277771 -0.000343211 0.0279204
-0.0118752 0.0258239 0.0213217
0.0120408 -0.0152355 0.0161058
0.0257935 -0.02503 0.0242377
0.00500351 -0.00663243 -0.0119061
0.0159796 -0.00654421 -0.0266855
0.00916653 0.0105588 0.0203331
0.0103427 0.0262646 0.00927033
-0.0100312 0.00583388 -0.00043265
-0.028734 -0.00327628 -0.0285615
-0.0199296 0.00546974 -0.017053
-0.0240079 0.014945 -0.0276437
0.00998259 0.0153598 -0.0096571
0.0158983 0.0272584 -0.00698753
-0.0148913 -0.0109202 0.0200734
-0.0247609 -0.00894191 0.0286801
0.00676713 0.00443717 -0.00165778
0.0182866 0.00162844 0.000274775
-0.00561251 0.00286005 0.00559138
-0.0107007 -0.0107081 -0.00802108
0.0188541 0.0131867 0.0171387
0.0276397 0.0155876 0.00737383
-0.0129774 0.00509603 -0.00901351
-0.00632916 0.00147384 -0.0201737
0.0129332 0.00258445 -0.00278127
0.0285942 -0.00337969 -0.0134098
0.0223057 0.0159614 0.0189748
0.02591 0.0282722 0.0206033
0.00970393 -0.00894459 -0.0173101
0.0174098 -0.023318 -0.0220027
-0.0128212 -0.00414893 -0.000373432
-0.0269966 -0.0105422 -0.0040437
-0.0025955 -0.0130129 -0.0195581
-0.0130811 -0.0139022 -0.0281965
-0.021671 -0.0114253 -0.00511945
-0.028227 -0.0228294 -0.0131289
0.00157839 -0.00846701 0.0189078
-0.0016719 -0.0183998 0.0149678
-0.0172822 -0.00987491 -0.00241034
-0.0175042 -0.0226999 -0.000345742
-0.000385494 -0.0155749 0.0173848
-0.00246633 -0.0287301 0.0201304
0.00666863 0.0197751 0.0132047
-0.00109874 0.0255247 0.00751763
0.00861694 0.00388136 -0.00199483
0.0157077 0.0126204 0.00252328
0.0151132 0.0171152 -0.0171046
0.0247926 0.0142086 -0.0222515
-0.0190694 -0.0197306 0.0194375
-0.0194455 -0.0282246 0.0247169
0.00825435 -0.0111062 0.017553
0.0171294 -0.00652965 0.017837
0.0176068 -0.0192921 -0.0197448
0.0269201 -0.0253667 -0.0193017
-0.00298802 -0.001194 0.0137928
-0.00803917 -0.0116981 0.00426816
0.00708115 0.00787072 0.0229128
0.0137349 0.0139278 0.0280587
0.0208311 0.0181073 -0.0198826
0.0272377 0.0231498 -0.0226143
-0.0089209 0.0136234 0.0208287
-0.0128489 0.0148428 0.0155917
0.0129592 -0.0160568 -0.0186156
0.00868246 -0.0279646 -0.0191572
0.00901795 0.012083 -0.0072573
0.00366043 0.0127738 -0.0236873
0.00816264 0.00917761 -0.00512949
0.0126948 0.00587286 -0.0160095
-0.0128212 -0.00414893 -0.000373432
-0.0258148 -0.00670583 0.00317402
-0.0233682 -0.00113949 -0.0231041
-0.0221482 -0.00813922 -0.0255117
-0.013594 0.0183059 -0.00783086
-0.0143613 0.0286555 -0.0173601
-0.0107799 0.0191411 0.0185545
-0.0130281 0.022872 0.0122841
-0.0102018 -0.00957156 0.0189213
-0.0109073 -0.0190539 0.0143113
-0.00693812 0.0037522 0.00378417
-0.00320995 0.0191447 0.00246254
0.0123718 -0.0094331 0.0157047
0.0205482 -0.00798151 0.00380278
-0.00806717 -0.00784412 0.0189708
-0.0133851 -0.00751615 0.0120468
0.000203672 -0.0134426 0.0178417
0.000651152 -0.0233921 0.000787418
-0.00296289 -0.000524584 0.0124401
0.00781836 0.000597257 0.0107588
-0.024579 -0.0207185 -0.0113901
-0.0226911 -0.0283238 -0.0160725
0.0140847 0.016613 -0.0132333
0.023525 0.0189198 -0.012327
-0.0198394 0.00847203 -0.0222847
-0.0161118 0.00807056 -0.0266599
-0.00910329 0.00520938 0.000832396
-0.0195068 0.00375575 0.00136487
0.00901019 0.0149925 0.0186381
0.0128672 0.0244537 0.0219734
-0.0138118 0.0114938 -0.00341796
-0.0281281 0.0150816 -0.00326077
0.0154976 -0.00906194 -0.0228155
0.0232235 -0.012107 -0.0262575
0.0185487 -0.0179459 0.0177754
0.0234952 -0.0165202 0.0150983
0.0149072 0.0106408 0.0184651
0.0204167 0.00307296 0.0168011
0.00464933 -0.00968105 0.0182846
0.00997216 -0.00662668 0.022403
0.0027793 -0.00968785 -0.0142959
0.00377153 -0.0161516 -0.0142187
-0.0211945 0.00205883 -0.0211359
-0.018403 0.00140586 -0.0276308
0.0216686 -0.0203962 -2.75142e-05
0.0260481 -0.0185337 -0.00882494
0.0136976 -0.00749472 -0.0209155
0.0204349 0.00177208 -0.0261534
0.0126829 0.0228981 -0.0104061
0.0128659 0.0286839 -0.0153829
-0.0216966 0.0143901 -0.00556142
-0.0256105 0.0177373 -0.0112528
0.00359473 -0.0150169 -0.0140439
0.00498928 -0.0242062 -0.0127769
0.0186001 -0.0182002 0.00394618
0.0183184 -0.0146632 -0.0027583
0.014318 -0.0175116 0.0123012
0.015657 -0.0257753 0.0123809
0.0122665 0.0106031 0.0193244
0.0131654 0.00774936 0.0109575
-0.00551092 0.0175536 0.0020064
-0.00823214 0.0266557 -0.000299371
-0.0200889 -0.0159458 -0.000226001
-0.0271159 -0.0205638 0.00362122
-0.00234291 -0.0218844 0.0202449
-0.00499817 -0.0230743 0.0244615
-0.0120935 0.00531738 -0.00643925
-0.0256109 0.00395032 -0.00657601
-0.0126172 0.0247936 -0.0158482
-0.00900926 0.0266912 -0.0228511
0.00400354 0.0129863 -0.0151064
-0.00276779 0.0145195 -0.0165126
-0.0084899 0.00480768 -0.0153667
-0.00454867 0.00820587 -0.0189489
0.0168132 -0.0193109 0.00764721
0.018989 -0.0282491 0.00472019
-0.0186021 -0.00413722 -0.00052864
-0.02233 -0.00191548 -0.00396842
-0.00532555 0.00512154 0.0247014
-0.0147255 0.00377422 0.0226569
0.00628878 0.0133894 -0.0114846
0.00492532 0.01864 -0.0133442
-0.00596763 0.00611895 -0.0178923
-0.000326782 0.00567841 -0.024451
-0.0201139 -0.00825118 0.0226801
-0.0250837 -0.00308368 0.0220059
0.0215421 -0.0196386 0.0223905
0.0230296 -0.0179193 0.0287187
-0.00298048 -0.000993174 0.013387
-0.00816721 0.00290064 0.0146325
0.0149961 -0.0162113 0.0179097
0.0168809 -0.0154291 0.0248169
0.00641363 -0.00732608 -0.0135273
0.0059921 -0.0027431 -0.0191011
-0.0234523 -0.0171522 -0.0107716
-0.023801 -0.018478 -0.0226491
0.0171799 0.00213481 -0.00100764
0.0268244 0.00230905 0.000501101
-0.0167316 0.00529783 -0.0133548
-0.0126812 0.0125975 -0.0228372
0.0216039 0.00112225 0.00124007
0.0247131 -0.00163083 0.00572669
0.0222679 -0.00370719 -0.0100173
0.0238986 -0.0113655 -0.0134405
-0.01274 0.022259 0.0192348
-0.0226678 0.0285233 0.0180767
-0.0123924 -0.00717905 -0.00569255
-0.0150596 -0.00939467 -0.019248
-0.00137959 -0.00170461 0.0244548
-0.0104964 -0.00242272 0.0268112
0.00473695 0.0146567 -0.0194598
0.00691697 0.0191341 -0.0232994
0.00427112 -0.00461116 -0.00787098
0.0089418 -0.0192991 -0.00586899
-0.0185811 -0.0159174 0.0209241
-0.0284145 -0.0195542 0.0281027
-0.0181242 -0.0116962 -0.00175504
-0.0133584 -0.0270949 -0.011733
-0.0231293 0.0168628 -0.0102558
-0.0223403 0.0193957 -0.0158228
-0.0123847 -0.0173682 0.0149448
-0.01699 -0.0238705 0.0113052
-0.010719 0.00616171 -0.0118056
-0.00806507 0.0134289 -0.0130739
0.0150666 -0.0180514 0.010905
0.0109054 -0.0169042 0.0064207
-0.0135167 -0.005409 -0.00412421
-0.0191059 -0.00384266 -0.0108274
0.0155662 0.00230568 -0.00168162
0.0158091 0.00151365 0.00660243
0.0127239 -0.0159183 0.0149644
0.00961485 -0.0273434 0.0170024
0.00766395 -0.00794111 -0.0149648
0.0132704 -0.00999531 -0.012556
-0.0185851 0.0229993 0.0181586
-0.025106 0.0195334 0.0163838
-0.0169337 0.00568225 0.00150871
-0.022207 0.00897482 0.00248711
-0.0155984 -0.0221377 0.0109126
-0.0172832 -0.0251132 0.0057436
-0.0199296 0.00546974 -0.017053
-0.0278721 0.00158025 -0.0191506
0.0183025 -0.00112264 -0.00592989
0.0226145 -0.00457045 -0.00304658
0.00930734 0.0130661 -0.00797724
0.00650803 0.0174167 -0.00562929
0.00948957 -0.0106043 0.0169985
0.0135229 -0.0107332 0.0214011
-0.0115832 0.0264258 -0.0208175
-0.0130476 0.028454 -0.0255925
-0.0126775 -0.0197987 0.0134135
-0.00827799 -0.0255307 0.0117833
0.00132805 0.0127091 -0.0167985
0.000252223 0.0106822 -0.0199442
0.00092227 0.000384814 0.00386611
0.00552444 -0.0042855 0.00562671
0.0214645 -0.0162876 0.0164262
0.0270097 -0.00966539 0.0148308
0.0106447 0.0241219 0.010243
0.0166698 0.0278827 0.00712348
0.0194091 -0.0223492 0.00698328
0.0242193 -0.0225006 0.0077849
0.00290629 -0.0196441 -0.0149712
-5.93359e-05 -0.0236661 -0.0184417
0.0156348 -0.00738439 0.016359
0.0237851 -0.00205812 0.0150478
0.022153 0.0160106 0.014017
0.0231056 0.0212141 0.0143594
0.0134786 0.026249 0.0104576
0.0156013 0.0284951 0.0136834
-0.0163497 0.0233126 0.0200282
-0.0239107 0.0279344 0.0275925
0.018834 0.0175745 -0.0200607
0.0208609 0.0167818 -0.0280997
0.00275734 0.00300275 0.0245161
0.00629649 0.00041012 0.0182511
-0.0216007 -0.0172918 -0.0184121
-0.018803 -0.0165692 -0.0207622
-0.0213747 -0.00722797 0.0254073
-0.0206336 -0.00400479 0.0272771
LINES 259 777
2 58 1
2 234 2
2 44 3
2 10 4
2 60 5
2 12 6
2 38 7
2 98 8
2 84 9
2 188 10
2 124 11
2 0 12
2 184 13
2 62 14
2 166 15
2 192 16
2 112 17
2 68 18
2 238 19
2 106 20
2 82 21
2 178 22
2 104 23
2 224 24
2 128 25
2 88 26
2 258 27
2 2 28
2 176 29
2 8 30
2 186 31
2 116 32
2 246 33
2 146 34
2 152 35
2 56 36
2 182 37
2 32 38
2 38 39
2 212 40
2 64 41
2 30 42
2 46 43
2 120 44
2 44 45
2 50 46
2 100 47
2 10 48
2 52 49
2 80 50
2 142 51
2 96 52
2 144 53
2 108 54
2 54 55
2 28 56
2 56 57
2 102 58
2 70 59
2 194 60
2 60 61
2 118 62
2 244 63
2 74 64
2 64 65
2 4 66
2 66 67
2 254 68
2 68 69
2 252 70
2 70 71
2 158 72
2 72 73
2 40 74
2 74 75
2 78 76
2 190 77
2 28 78
2 78 79
2 42 80
2 156 81
2 122 82
2 82 83
2 110 84
2 148 85
2 72 86
2 86 87
2 94 88
2 200 89
2 30 90
2 140 91
2 226 92
2 92 93
2 4 94
2 94 95
2 48 96
2 96 97
2 168 98
2 98 99
2 174 100
2 100 101
2 24 102
2 102 103
2 22 104
2 104 105
2 90 106
2 216 107
2 18 108
2 108 109
2 20 110
2 130 111
2 126 112
2 112 113
2 170 114
2 236 115
2 138 116
2 116 117
2 48 118
2 118 119
2 16 120
2 132 121
2 220 122
2 122 123
2 134 124
2 124 125
2 40 126
2 126 127
2 24 128
2 128 129
2 110 130
2 198 131
2 120 132
2 242 133
2 154 134
2 134 135
2 210 136
2 136 137
2 18 138
2 138 139
2 90 140
2 140 141
2 196 142
2 142 143
2 52 144
2 144 145
2 20 146
2 146 147
2 84 148
2 228 149
2 160 150
2 232 151
2 202 152
2 162 153
2 204 154
2 240 155
2 80 156
2 156 157
2 12 158
2 158 159
2 76 160
2 160 161
2 152 162
2 162 163
2 26 164
2 164 165
2 114 166
2 166 167
2 66 168
2 168 169
2 14 170
2 170 171
2 16 172
2 172 173
2 46 174
2 256 175
2 208 176
2 180 177
2 34 178
2 178 179
2 176 180
2 180 181
2 222 182
2 182 183
2 86 184
2 214 185
2 206 186
2 186 187
2 6 188
2 188 189
2 150 190
2 190 191
2 2 192
2 192 193
2 26 194
2 194 195
2 50 196
2 196 197
2 130 198
2 198 199
2 88 200
2 218 201
2 34 202
2 202 203
2 136 204
2 204 205
2 42 206
2 206 207
2 36 208
2 208 209
2 14 210
2 210 211
2 172 212
2 212 213
2 250 214
2 214 215
2 106 216
2 216 217
2 230 218
2 218 219
2 22 220
2 220 221
2 36 222
2 222 223
2 76 224
2 224 225
2 62 226
2 226 227
2 148 228
2 228 229
2 200 230
2 230 231
2 150 232
2 232 233
2 8 234
2 234 235
2 114 236
2 236 237
2 54 238
2 248 239
2 154 240
2 240 241
2 132 242
2 242 243
2 92 244
2 244 245
2 32 246
2 246 247
2 238 248
2 248 249
2 184 250
2 250 251
2 58 252
2 252 253
2 6 254
2 254 255
2 174 256
2 256 257
2 164 258
2 258 259
CELL_DATA 259
SCALARS radius float
LOOKUP_TABLE default
0.281059
0.859208
0.258964
1.12898
0.276262
1.24902
0.24088
1.07966
0.199593
1.20514
0.287282
1.27028
0.207736
0.587615
0.262002
0.624969
0.241239
0.557255
0.205073
0.696226
0.289555
0.493696
0.28681
0.526917
0.258646
0.453706
0.240881
0.720175
0.169138
0.851265
0.208909
0.412077
0.267979
0.583062
0.238413
0.478553
0.273036
0.334337
0.28601
0.510585
0.25375
0.609902
0.217737
0.35459
0.300803
0.463227
0.25256
0.677751
0.183544
0.540066
0.249524
0.32447
0.249357
0.406592
0.260646
0.497603
0.238787
0.45154
0.274032
0.336498
0.257217
0.630807
0.180403
0.363244
0.316119
1.08766
0.229248
0.567943
0.216508
0.361879
0.299304
0.451491
0.206884
0.416881
0.290522
0.617775
0.259222
0.630221
0.244062
0.56851
0.247729
0.362232
0.285422
0.420368
0.250212
0.43652
0.229043
0.523672
0.173161
0.730614
0.203942
0.343573
0.257443
0.534008
0.20545
0.37449
0.263806
1.08241
0.212611
0.350952
0.300428
0.478059
0.258094
0.341888
0.253909
0.711411
0.204107
0.431142
0.234686
0.49866
0.24445
0.33348
0.28458
0.397258
0.196568
0.434796
0.230352
0.637269
0.198266
0.447938
0.161665
0.400932
0.256722
0.36598
0.293606
0.392912
0.286724
0.333336
0.270238
0.367701
0.232276
0.356461
0.270175
0.401153
0.24952
0.487256
0.227724
0.45291
0.220406
0.310551
0.277926
0.324643
0.26533
0.303577
0.231909
0.597662
0.248074
0.4048
0.274565
0.411127
0.252518
0.362857
0.21648
0.454558
0.252588
0.297094
0.222532
0.465973
0.209108
0.431602
0.221777
0.324671
0.288766
0.337346
0.235486
0.327831
0.258372
1.08426
0.186789
0.418262
0.218831
0.536274
0.220815
0.446601
0.293599
0.341236
0.255308
0.516656
0.260027
0.326781
0.2633
0.351783
0.285124
0.414399
0.266563
0.311674
0.276586
1.20694
0.198477
0.338866
0.278035
0.638888
0.255479
0.380305
0.256634
0.387361
0.288079
0.32744
0.282626
0.368926
0.213009
0.392149
0.232261
0.470078
0.215102
0.350684
0.23423
0.376562
0.239059
0.506224
0.241259
0.523492
0.217943
0.340169
0.273338
0.282588
0.241377
0.311696
0.274209
0.431549
0.251567
0.383039
0.233098
0.537599
0.208615
0.363702
0.196212
0.370034
0.310614
0.355745
0.245179
0.312709
0.24372
0.862523
0.194607
0.301694
0.270829
0.367193
0.276523
0.308522
0.236641
0.345014
0.277405
0.286407
0.260229
0.319457
0.237266
0.344498
0.270262
0.396211
0.283708
0.411857
0.28219
0.575299
0.193191
0.357915
0.27387
0.293691
0.224768
