# vtk DataFile Version 3.0
Tree
ASCII
DATASET POLYDATA
POINTS 1600 float
0.000276 -0.000276 -0.027495
0.002487 -0.000276 -0.027272
0.00033131 -0.00089508 -0.0272574
-0.003593 -0.004698 -0.026228
0.000292593 -0.000461724 -0.0274237
-0.00691 0.000829 -0.025739
0.000319695 -0.000765073 -0.0273073
0.006357 -0.005251 -0.025028
0.000280978 -0.000331717 -0.0274736
0.006388 0.005251 -0.025013
0.000277493 -0.000292715 -0.0274886
-0.00342 0.008015 -0.024736
0.00202107 -0.0032007 -0.0262545
0.000829 -0.009511 -0.024183
-0.0033796 -0.00333167 -0.0259899
-0.008437 -0.005251 -0.023907
0.00332162 0.00102858 -0.0262713
0.010222 -0.001382 -0.023631
-0.00542445 0.00134473 -0.0256103
-0.009836 0.004146 -0.023354
-0.00366436 0.00617599 -0.0248562
-0.007462 0.008568 -0.022806
0.00515559 0.00444893 -0.0251439
0.005251 0.010078 -0.022802
-0.00335627 0.00742236 -0.0244974
-0.001935 0.011532 -0.022525
0.000127142 -0.00817379 -0.0242268
-0.00304 -0.011947 -0.021972
-0.000474886 -0.00979598 -0.0232637
0.001935 -0.012484 -0.021696
0.00173629 -0.00650831 -0.0247058
0.005804 -0.011552 -0.02142
-0.00531663 -0.00491114 -0.0247489
-0.007462 -0.010912 -0.021143
0.00646087 0.00096886 -0.0248025
0.012437 0.005251 -0.020872
0.00547416 -0.008699 -0.0225795
0.010437 -0.008568 -0.020867
-0.00141991 0.0104512 -0.0228016
0.001935 0.013543 -0.020695
-0.00732524 -0.00458624 -0.0239394
-0.013646 -0.001935 -0.02059
-0.00763425 -0.00785533 -0.0223533
-0.011142 -0.008568 -0.020314
0.00983672 -0.0081352 -0.0210459
0.012547 -0.00691 -0.020038
-0.0109727 -0.00423366 -0.0216976
-0.013128 -0.006357 -0.019761
0.00747983 -0.00894757 -0.0216095
0.008894 -0.011884 -0.019485
-0.00910934 0.00364457 -0.0231385
-0.013543 0.006357 -0.019361
0.0118743 -0.00695186 -0.0202747
0.014518 -0.004146 -0.019209
0.00589884 0.00735124 -0.0234933
0.010226 0.011107 -0.019209
0.0103827 0.00164801 -0.0222154
0.015345 -0.000276 -0.018932
-0.00549132 0.00804457 -0.0233093
-0.00722 0.013543 -0.018932
-0.0131669 -0.00223538 -0.02044
-0.015754 0.000276 -0.018472
-0.000663477 0.0119779 -0.0216524
-0.002487 0.015393 -0.018656
0.0133816 0.00157693 -0.0200905
0.015422 0.003593 -0.018379
-0.00173179 -0.0113873 -0.0220891
-0.00304 -0.015785 -0.018103
0.012119 0.00442889 -0.0206341
0.014236 0.007462 -0.018103
-0.00101906 -0.0137883 -0.019939
0.001935 -0.016193 -0.017827
-0.0120086 0.0064175 -0.0201403
-0.01313 0.009673 -0.017827
-0.00212425 -0.0115552 -0.022054
-0.007462 -0.014761 -0.01755
-0.00766334 0.0115041 -0.0199458
-0.010779 0.012545 -0.01755
-0.00936775 -0.0087462 -0.0209284
-0.011247 -0.012437 -0.017274
0.00887808 0.0110358 -0.0196954
0.009121 0.014072 -0.017274
0.00789501 -0.0109282 -0.020184
0.00691 -0.015754 -0.016739
0.00983827 0.0110191 -0.0191863
0.013137 0.010779 -0.016997
0.00846613 -0.0128185 -0.0183554
0.010779 -0.013543 -0.016606
-0.007372 0.0129758 -0.0190584
-0.006944 0.015754 -0.016721
0.010448 -0.0077802 -0.0208145
0.014095 -0.010263 -0.016445
0.00824991 0.0134632 -0.0180105
0.006357 0.016235 -0.016445
-0.0113742 -0.0103416 -0.0184261
-0.014386 -0.010226 -0.016168
-0.00633176 0.0150356 -0.0175011
-0.004146 0.017157 -0.016168
0.0135266 -0.00868422 -0.0176884
0.016233 -0.007462 -0.015892
-0.0125917 0.00639451 -0.0198442
-0.017236 0.004698 -0.015892
-0.000983951 0.0147185 -0.0190806
0.000276 0.017863 -0.015892
-0.0125294 -0.00535151 -0.0201684
-0.016704 -0.00691 -0.015616
0.00070078 0.0165638 -0.0170902
0.003593 0.017715 -0.015616
0.0153752 -0.00712019 -0.0165994
0.017809 -0.004146 -0.015339
-0.00248751 -0.0153994 -0.01832
-0.004146 -0.018022 -0.015063
-0.0157702 -0.00548252 -0.0169179
-0.01814 -0.003593 -0.015063
-0.00270868 -0.0171477 -0.0162882
-0.001382 -0.018646 -0.014786
0.0146532 0.000739806 -0.0190351
0.018678 -0.000829 -0.014786
0.000598536 -0.0159745 -0.0177431
0.001382 -0.018848 -0.01451
-0.017404 -0.00342005 -0.0156501
-0.018897 -0.000276 -0.01451
-0.00943833 0.012789 -0.0178258
-0.011332 0.015201 -0.014428
-0.00649062 -0.0146379 -0.0177025
-0.008568 -0.017069 -0.014234
0.0171403 0.000727002 -0.0163311
0.018936 0.002487 -0.014234
0.0110927 0.0114407 -0.0179019
0.012437 0.014494 -0.014234
0.00208926 -0.0173906 -0.015907
0.005251 -0.018569 -0.013957
-0.0166312 0.00464092 -0.0162987
-0.019057 0.00304 -0.013957
0.0137703 0.0063126 -0.0185898
0.017412 0.008568 -0.013806
0.00796634 -0.0149089 -0.0166586
0.008015 -0.017768 -0.013681
0.0165818 0.00707235 -0.0153018
0.018609 0.005804 -0.013681
-0.0146029 0.00625542 -0.0177404
-0.016859 0.009785 -0.013681
0.00786078 0.0147644 -0.0169493
0.009121 0.017412 -0.01345
0.00845067 -0.0158473 -0.0153992
0.011332 -0.016098 -0.013405
-0.0164211 0.00750433 -0.0152275
-0.018518 0.006682 -0.013405
-0.00661339 0.015366 -0.0171423
-0.008054 0.017965 -0.013405
-0.00866553 -0.015779 -0.0153117
-0.011884 -0.015935 -0.013128
0.0168377 0.00819218 -0.0144739
0.016334 0.011332 -0.013128
-0.00500846 0.0165801 -0.0163156
-0.003593 0.019552 -0.013128
-0.0126457 -0.0107831 -0.017036
-0.014648 -0.013718 -0.012852
-0.016551 0.00935791 -0.0141062
-0.015754 0.012436 -0.012852
0.00060404 0.0174029 -0.0161733
0.000829 0.020052 -0.012852
0.0101274 -0.0132508 -0.0169338
0.01455 -0.014095 -0.012575
0.0127427 0.0132507 -0.0149432
0.015065 0.013543 -0.012575
0.00783567 0.0161595 -0.0153809
0.005251 0.019623 -0.012495
0.0137813 -0.0131162 -0.0138926
0.016859 -0.011564 -0.012299
-0.0113949 0.0140814 -0.015191
-0.014262 0.014648 -0.012299
-0.00329798 -0.0178125 -0.0153603
-0.004146 -0.02021 -0.012023
-0.0145723 -0.011876 -0.0142935
-0.017238 -0.011332 -0.012023
-0.0165617 -0.00606779 -0.0158446
-0.019623 -0.00691 -0.011762
0.0126451 0.0140143 -0.0143429
0.012635 0.016307 -0.012023
-0.00179763 -0.0183048 -0.0150064
-0.000276 -0.020811 -0.011746
0.0146727 -0.00771452 -0.0170132
0.018708 -0.009121 -0.011746
-0.0123748 0.0149472 -0.0135323
-0.012437 0.016688 -0.011746
0.00311635 -0.0181762 -0.0147593
0.003328 -0.020729 -0.01147
0.017781 -0.00789701 -0.0133542
0.020009 -0.006357 -0.01147
-0.0120957 0.0160308 -0.0126184
-0.010226 0.018335 -0.01147
0.00804764 -0.0172568 -0.0140715
0.00691 -0.020016 -0.011193
-0.0189634 -0.00586657 -0.0129091
-0.020766 -0.004146 -0.011193
0.00896828 0.0170387 -0.0137449
0.010779 0.018226 -0.011193
-0.00482227 -0.0189421 -0.0133152
-0.008015 -0.019792 -0.010917
0.019409 -0.00619908 -0.0120689
0.021049 -0.003593 -0.010917
-0.0168478 0.00860498 -0.0141357
-0.01907 0.009673 -0.010873
-0.00729648 0.0177524 -0.0139043
-0.006995 0.020176 -0.010917
0.00838455 -0.0183923 -0.0124201
0.010226 -0.018947 -0.010641
-0.0202466 -0.00406031 -0.0117249
-0.021486 -0.001382 -0.010641
0.0184922 0.00188504 -0.0146217
0.021281 0.003593 -0.010562
0.00705879 0.0183384 -0.0131302
0.008015 0.019983 -0.010641
-0.0105966 -0.0164967 -0.0132276
-0.011884 -0.018164 -0.010364
0.0200572 0.00153502 -0.0124552
0.021691 -0.000829 -0.010364
-0.0179907 0.00675784 -0.0137629
-0.021192 0.004698 -0.010364
0.01701 0.00830493 -0.0142736
0.019623 0.009673 -0.010095
-0.00635399 0.019516 -0.0119571
-0.004275 0.021281 -0.010364
0.0105557 -0.0162215 -0.0136386
0.01299 -0.017607 -0.010088
-0.0203487 0.00442867 -0.0113744
-0.021839 0.001382 -0.010088
0.0178043 0.00994508 -0.0120987
0.017607 0.01299 -0.010088
0.00106669 0.0196926 -0.0131409
0.001935 0.021796 -0.010088
-0.01204 -0.0168939 -0.011584
-0.014648 -0.016486 -0.009812
0.0179264 0.00652828 -0.013966
0.021118 0.006357 -0.009812
0.0141179 0.0137268 -0.0132065
0.015433 0.015754 -0.009812
-0.00433606 -0.0198162 -0.0123337
-0.00304 -0.022016 -0.009535
0.0142545 -0.0137498 -0.0129268
0.015679 -0.015754 -0.009535
-0.0194169 0.00585488 -0.0121439
-0.020935 0.007462 -0.009535
-0.0175563 0.00958467 -0.0126107
-0.017623 0.013543 -0.009535
0.00706387 0.0192385 -0.0119548
0.005251 0.021596 -0.009535
-0.0156122 -0.0121305 -0.0129756
-0.016859 -0.014743 -0.009259
-0.019276 -0.00675862 -0.0120884
-0.019924 -0.010226 -0.009259
-0.0135858 0.0148992 -0.0125024
-0.016307 0.015352 -0.009259
0.000589453 0.0209426 -0.0113213
-0.001382 0.022354 -0.009259
0.0156527 -0.0144878 -0.0107369
0.01762 -0.014095 -0.008982
-0.018151 0.0109702 -0.0108565
-0.019623 0.01114 -0.008982
-0.0116387 0.0170445 -0.0117992
-0.012437 0.018828 -0.008982
-0.000609561 -0.0204031 -0.0122007
0.000276 -0.022731 -0.008706
0.0171679 -0.0136645 -0.00974705
0.019378 -0.011884 -0.008706
0.0181818 0.0114624 -0.0105053
0.019378 0.011884 -0.008706
0.0105838 0.0177379 -0.0117215
0.013186 0.018518 -0.008706
0.000850535 -0.0217674 -0.0100266
0.003593 -0.022615 -0.00843
-0.01692 -0.0132071 -0.0105135
-0.018858 -0.01299 -0.00843
-0.0198322 -0.00763858 -0.0108123
-0.021999 -0.006357 -0.00843
0.0155663 0.0148583 -0.0105113
0.017412 0.014872 -0.00843
-0.0041775 -0.0212601 -0.0102675
-0.005251 -0.022459 -0.008153
0.0080121 -0.0192537 -0.0114914
0.008568 -0.021414 -0.008153
0.0184733 -0.00847612 -0.0121918
0.020938 -0.009673 -0.008153
0.0209137 0.000875312 -0.0112883
0.023024 0.001382 -0.008153
-0.0148881 0.0157477 -0.0102467
-0.015127 0.017412 -0.008153
0.0112363 0.0183673 -0.0103965
0.010226 0.020729 -0.008073
-0.00704759 -0.0198922 -0.0110251
-0.009121 -0.021364 -0.007877
0.0204458 -0.00867092 -0.00936815
0.021997 -0.007462 -0.007877
0.0202291 0.00703089 -0.0105995
0.021591 0.008568 -0.007877
-0.0115706 0.0186469 -0.00979949
-0.010483 0.020729 -0.007877
0.00902655 -0.0205309 -0.00906673
0.010841 -0.020729 -0.007601
0.0216406 -0.00732649 -0.00832926
0.02294 -0.005251 -0.007362
-0.0211382 0.00348907 -0.0104988
-0.023114 0.003593 -0.007601
0.015538 0.0154577 -0.00991504
0.015621 0.017412 -0.007601
-0.00587051 0.0203891 -0.0109171
-0.00691 0.022349 -0.007601
-0.00906528 -0.0204874 -0.0089814
-0.011884 -0.020336 -0.007324
-0.0208797 -0.00774608 -0.00926381
-0.021716 -0.009121 -0.007324
-0.0210167 -0.00319432 -0.0108161
-0.023357 -0.00304 -0.007324
0.0207802 0.00661308 -0.0101112
0.02308 0.004698 -0.007324
0.01133 0.0194405 -0.0089083
0.012437 0.020176 -0.007073
0.00535707 0.0211461 -0.00988384
0.00304 0.023357 -0.007324
0.012302 -0.0177281 -0.010373
0.013315 -0.019623 -0.007048
[...]
CELL_DATA 1599
SCALARS radius float
LOOKUP_TABLE default
0.0872707
0.604052
0.0792538
1.03729
0.0823537
0.984959
0.107312
1.17336
0.0807749
1.2524
0.0670743
0.902523
0.0814878
0.603444
0.0796293
0.793367
0.107165
0.543497
0.0737762
0.704006
0.0896449
0.669951
0.0970041
0.261219
0.083955
0.689088
0.0751217
0.688708
0.104429
0.902017
0.0984182
0.602988
0.106099
0.583508
0.0751695
0.740899
0.0711177
0.259736
0.110385
0.586334
0.0812718
0.26046
0.0962813
0.511404
0.0794495
0.585844
0.0817714
0.74032
0.0846158
0.542866
0.0795785
0.132515
0.122215
0.66956
0.0613566
0.5823
0.082527
0.691808
0.0681591
0.141817
0.132295
0.256779
0.102173
0.433786
0.104286
0.687907
0.0712856
0.487443
0.0846011
0.580219
0.0912019
0.542411
0.111241
0.506834
0.0784694
0.691306
0.0843358
0.254454
0.109883
0.66888
0.0834651
0.647922
0.0845057
0.531253
0.0966616
0.647441
0.0737751
0.438177
0.0718401
0.510945
0.0948968
0.530528
0.0961075
0.249773
0.110383
0.437627
0.0916099
0.507957
0.0889833
0.540847
0.0891888
0.249791
0.0907108
0.58306
0.0781322
0.243957
0.132718
0.135695
0.121509
0.572824
0.0782713
0.582524
0.0944585
0.572456
0.0717184
0.431768
0.103447
0.194634
0.113366
0.146566
0.132109
0.626793
0.085622
0.506283
0.0919369
0.43076
0.0793308
0.53098
0.075386
0.187717
0.126381
0.14611
0.134067
0.486847
0.0775847
0.568746
0.0719903
0.485994
0.0837924
0.540272
0.0831079
0.529838
0.0714562
0.568124
0.0798063
0.536687
0.0746702
0.432175
0.0813317
0.505654
0.0900664
0.224407
0.115816
0.145706
0.132469
0.242473
0.127089
0.135863
0.124587
0.230091
0.101618
0.443818
0.0721219
0.52991
0.0849289
0.528782
0.101899
0.443137
0.114193
0.626283
0.0759891
0.554493
0.0706102
0.234594
0.131461
0.579414
0.070316
0.127909
0.118506
0.257689
0.0813131
0.50685
0.0801514
0.62575
0.0841288
0.172777
0.14642
0.503587
0.0961728
0.539577
0.0970951
0.552069
0.0892916
0.57894
0.084517
0.239465
0.0852845
0.553972
0.0870129
0.149128
0.134386
0.241808
0.110897
0.431513
0.0925334
0.551661
0.103842
0.1976
0.113236
0.428762
0.112558
0.511877
0.096822
0.504639
0.0972389
0.427855
0.104223
0.519798
0.0942844
0.213614
0.121011
0.430547
0.101845
0.247225
0.0864695
0.342489
0.110005
0.210146
0.119989
0.225292
0.162753
0.503681
0.0985069
0.469491
0.0768444
0.527414
0.0654871
0.533343
0.0941043
0.440595
0.080991
0.519284
0.0744427
0.226571
0.127569
0.510528
0.0785453
0.221438
0.154828
0.571163
0.111704
0.444671
0.0969447
0.218179
0.182463
0.43995
0.0937577
0.217345
0.0993132
0.538895
0.0730844
0.255824
0.0895401
0.176448
0.116613
0.195815
0.111306
0.237325
0.122724
0.253056
0.129721
0.20477
0.169557
0.570808
0.0823968
0.526679
0.0828347
0.53293
0.0716551
0.550432
0.0995768
0.49919
0.0763262
0.425243
0.0856104
0.44393
0.0943984
0.233595
0.122663
0.263496
0.102874
0.4985
0.0808517
0.468599
0.0876569
0.537842
0.0758184
0.135332
0.114247
0.254388
0.105984
0.34009
0.0906528
0.239424
0.0816115
0.429118
0.0830685
0.260294
0.11782
0.569378
0.0873285
0.192306
0.129854
0.171048
0.114432
0.22171
0.117042
0.198305
0.0886809
0.244421
0.115874
0.423146
0.114947
0.463934
0.109502
0.509364
0.100403
0.53195
0.0944211
0.50247
0.0746611
0.178211
0.151398
0.20158
0.121292
0.427197
0.0955872
0.549647
0.0849619
0.240759
0.122258
0.33621
0.106994
0.460876
0.110415
0.445289
0.0904839
0.398309
0.118163
0.501205
0.08706
0.529642
0.0761427
0.463294
0.101214
0.179471
0.163887
0.442383
0.0762255
0.499141
0.0756949
0.527594
0.0826338
0.430278
0.0864182
0.167142
0.145552
0.416707
0.0950472
0.509641
0.0825973
0.527153
0.0872336
0.241141
0.10438
0.281453
0.113246
0.33023
0.0880869
0.150464
0.140592
0.440946
0.0901208
0.194109
0.116342
0.254823
0.120697
0.47536
0.102858
0.165713
0.145056
0.237779
0.104399
0.406742
0.0878957
0.236953
0.144616
0.546899
0.0718768
0.328182
0.0873579
0.333998
0.114049
0.234531
0.111956
0.208412
0.149974
0.458957
0.0825196
0.474704
0.0994973
0.461246
0.0984106
0.444631
0.0990857
0.245357
0.0966384
0.246135
0.130822
0.231458
0.132813
0.251636
0.106511
0.459817
0.0798917
0.435054
0.0851326
0.497784
0.0848361
0.154211
0.141372
0.469679
0.0774554
0.528976
0.0715948
0.363466
0.0847418
0.228429
0.104419
0.1953
0.159739
0.396466
0.102618
0.405955
0.0846354
0.278648
0.105698
0.245206
0.119622
0.457684
0.0855177
0.443379
0.0971032
0.325315
0.0900233
0.385708
0.0881974
0.219478
0.138592
0.429319
0.0995911
0.362349
0.102384
0.193201
0.175735
0.508911
0.0786933
0.392936
0.106304
0.446657
0.0781222
0.272268
0.101861
0.41377
0.118374
0.330298
0.118426
0.206718
0.130118
0.434272
0.0878907
0.405862
0.100015
0.187732
0.17147
0.236053
0.131126
0.316924
0.123055
0.412092
0.100962
0.508185
0.0886513
0.323944
0.0863887
0.217434
0.159685
0.298452
0.0838532
0.149959
0.133597
0.150185
0.133108
0.459616
0.115011
0.401855
0.102858
0.446335
0.0804485
0.2091
0.171799
0.412307
0.0751562
0.314639
0.0973607
0.473088
0.0780641
0.325701
0.0976891
0.443172
0.0872901
0.150237
0.13854
0.404483
0.106372
0.445545
0.0735707
0.221818
0.143089
0.152036
0.141741
0.471617
0.0926662
0.439981
0.101118
0.227422
0.124969
0.242141
0.0995047
0.404711
0.100733
0.469049
0.0976564
0.428149
0.0839774
0.464158
0.0748676
0.360797
0.0910188
0.442305
0.080684
0.422153
0.100419
0.441723
0.102494
0.390589
0.115269
0.256877
0.0899424
0.463589
0.082519
0.222171
0.120106
0.217992
0.137441
0.387946
0.116983
0.384439
0.101631
0.201896
0.177238
0.406602
0.101259
0.238316
0.135425
0.158263
0.142453
0.187867
0.125422
0.20171
0.10418
0.445311
0.0808887
0.189637
0.118792
0.382885
0.106748
0.381122
0.0976769
0.421927
0.0906735
0.227813
0.134648
0.151205
0.140809
0.2142
0.147083
0.404827
0.0837743
0.299679
0.0998354
0.300646
0.0915816
0.22161
0.0876738
0.411202
0.101837
0.266851
0.122651
0.391129
0.0901
0.40881
0.0878166
0.420996
0.0934095
0.440153
0.0756368
0.402435
0.108021
0.426465
0.0962674
0.468344
0.102734
0.261809
0.122671
0.320397
0.123587
0.403833
0.0801483
0.399942
0.0953371
0.234228
0.107125
0.403473
0.0846647
0.297056
0.0973823
0.183608
0.121201
0.308235
0.0939991
0.401939
0.103061
0.167631
0.15575
0.181764
0.159165
0.188213
0.107877
0.400412
0.102404
0.297734
0.117607
0.425734
0.0863229
0.205352
0.178944
0.148521
0.136274
0.406971
0.0932332
0.350347
0.102636
0.437345
0.0833411
0.398136
0.109331
0.236898
0.128732
0.401369
0.115447
0.374631
0.102522
0.304963
0.131193
0.335242
0.10238
0.20124
0.137021
0.338002
0.10122
0.425554
0.0793678
0.394493
0.0863008
0.384524
0.0865826
0.380484
0.0850945
0.254714
0.100647
0.410003
0.0952993
0.406125
0.0829189
0.435536
0.110046
0.363209
0.10478
0.419083
0.0841623
0.203339
0.179785
0.298249
0.0954037
0.38088
0.132639
0.147878
0.137979
0.361827
0.0861513
0.194744
0.109269
0.318231
0.0912302
0.304306
0.0984248
0.200791
0.170004
0.24245
0.109138
0.192472
0.125948
0.182618
0.164036
0.218325
0.100675
0.294812
0.103425
0.378973
0.109553
0.39009
0.0839939
0.332865
0.1007
0.210592
0.190363
0.327599
0.0914919
0.328581
0.0783959
0.291487
0.0962947
0.230895
0.155551
0.291227
0.127283
0.25092
0.12079
0.376797
0.117215
0.153068
0.135815
0.348287
0.123645
0.192355
0.105437
0.41753
0.0942819
0.312038
0.105282
0.181707
0.158762
0.400652
0.107782
0.377662
0.111752
0.359045
0.119324
0.177555
0.156283
0.25251
0.115646
0.345137
0.0867975
0.384367
0.0949492
0.310604
0.0996128
0.310265
0.0896912
0.28753
0.128554
0.397298
0.0846311
0.352419
0.1126
0.39816
0.105311
0.372106
0.109844
0.403401
0.105766
0.296645
0.129298
0.388481
0.107738
0.297354
0.117968
0.361877
0.112737
0.181595
0.167898
0.395865
0.0855959
0.393356
0.0982347
0.209027
0.132751
0.228677
0.12369
0.369493
0.104375
0.344775
0.122912
0.338139
0.109464
0.382833
0.116365
0.374805
0.0872808
0.345648
0.108479
0.239971
0.10396
0.395459
0.0915066
0.381763
0.0952784
0.399312
0.111737
0.327546
0.089277
0.245402
0.146175
0.293465
0.117258
0.295765
0.0863619
0.191793
0.164882
0.371615
0.0950454
0.393066
0.0982413
0.397514
0.0962498
0.358619
0.0989462
0.295343
0.108658
0.282886
0.121227
0.339329
0.0965708
0.185154
0.171484
0.329605
0.133152
0.322196
0.130471
0.181726
0.171541
0.181377
0.168624
0.333276
0.12278
0.216702
0.185784
0.189448
0.164605
0.220997
0.106485
0.213507
0.131328
0.391241
0.09748
0.193224
0.111095
0.373685
0.115132
0.292218
0.0932767
0.316371
0.103569
0.324346
0.0988006
0.326755
0.0920333
0.343977
0.106675
0.278695
0.137242
0.220556
0.151975
0.265542
0.123692
0.226729
0.125723
0.40162
0.0964557
0.293577
0.126833
0.208649
0.139768
0.308591
0.0948486
0.342769
0.111967
0.315795
0.0828113
0.298477
0.0950494
0.300381
0.12625
0.349026
0.0778276
0.2782
0.125643
0.258774
0.138212
0.3698
0.115792
0.242465
0.160303
0.342854
0.0947334
0.332536
0.106545
0.321901
0.142174
0.162989
0.151413
0.294026
0.0931801
0.164466
0.148605
0.274809
0.129496
0.380287
0.0853544
0.193266
0.174641
0.366229
0.086878
0.287637
0.112919
0.341425
0.0923601
0.322928
0.116575
0.313822
0.102674
0.360946
0.0952507
0.272378
0.114363
0.30318
0.0941832
0.312968
0.136102
0.287288
0.103387
0.396457
0.106552
0.173518
0.162316
0.209026
0.133629
0.270988
0.106927
0.366163
0.0912495
0.334337
0.102516
0.33603
0.13092
0.285464
0.119622
0.27275
0.160034
0.314515
0.110542
0.232198
0.130057
0.160972
0.149067
0.298125
0.122978
0.356929
0.114891
0.32562
0.116001
0.363381
0.1046
0.233358
0.204788
0.31888
0.125703
0.318883
0.101619
0.356869
0.146557
0.210713
0.133629
0.330405
0.122665
0.326301
0.0893975
0.297571
0.108043
0.291986
0.112194
0.21272
0.123331
0.168946
0.15735
0.33163
0.105532
0.284848
0.124714
0.289886
0.110249
0.310015
0.103133
0.265186
0.167299
0.338655
0.104454
0.325244
0.110592
0.225032
0.149227
0.324654
0.130846
0.331227
0.139276
0.205768
0.18612
0.248988
0.131032
0.165588
0.150309
0.187337
0.173287
0.28663
0.133424
0.31143
0.101952
0.312377
0.148234
0.234115
0.113179
0.329345
0.112894
0.294279
0.110099
0.345076
0.103394
0.353759
0.0983411
0.270305
0.11205
0.214671
0.199211
0.366042
0.0953886
0.168005
0.156658
0.16265
0.151143
0.340989
0.119741
0.175355
0.162736
0.201877
0.176486
0.305092
0.106712
0.29919
0.132697
0.322769
0.113982
0.304142
0.118991
0.284732
0.104189
0.295103
0.098801
0.26289
0.148138
0.290378
0.123732
0.251969
0.174312
0.30598
0.103596
0.308271
0.118944
0.323368
0.0946463
0.196794
0.121836
0.2671
0.102328
0.362138
0.112483
0.3136
0.103298
0.328534
0.119409
0.309047
0.13425
0.269357
0.112957
0.291217
0.0974522
0.280114
0.140337
0.313985
0.104811
0.286882
0.156175
0.227634
0.123543
0.233896
0.155841
0.176406
0.159614
0.282804
0.132697
0.348432
0.105975
0.30893
0.11527
0.298478
0.111482
0.288002
0.146788
0.278186
0.0995221
0.323885
0.144565
0.201358
0.179441
0.266326
0.0983293
0.318313
0.126887
0.263201
0.107621
0.343022
0.0949395
0.329271
0.105563
0.278064
0.162859
0.326831
0.138564
0.306717
0.123898
0.324756
0.141188
0.302005
0.129561
0.199599
0.177219
0.302082
0.133101
0.200602
0.180416
0.325585
0.0975532
0.269527
0.102904
0.326554
0.121326
0.270541
0.166607
0.264501
0.104342
0.29388
0.124605
0.263229
0.109888
0.269437
0.175665
0.275482
0.134918
0.181905
0.170652
0.346043
0.118798
0.277714
0.147915
0.285892
0.100786
0.318709
0.101959
0.282831
0.119787
0.205354
0.117537
0.203425
0.187028
0.260936
0.157381
0.329644
0.115575
0.281323
0.123299
0.27665
0.130765
0.328179
0.103302
0.290057
0.128461
0.289193
0.159993
0.244131
0.214489
0.294073
0.142146
0.295318
0.148725
0.226486
0.139505
0.320996
0.115668
0.311181
0.108002
0.30375
0.107502
0.180746
0.165951
0.317881
0.116478
0.262706
0.141984
0.266687
0.148832
0.253858
0.140685
0.256211
0.153073
0.207793
0.127582
0.270686
0.162306
0.285644
0.12674
0.264798
0.147955
0.284776
0.149643
0.217286
0.12255
0.267843
0.11776
0.212673
0.136852
0.220363
0.195307
0.31155
0.127165
0.274286
0.123899
0.262653
0.138683
0.19098
0.17277
0.260196
0.166481
0.254809
0.173391
0.252275
0.123718
0.247082
0.171043
0.267994
0.126485
0.297233
0.130348
0.262302
0.13883
0.274685
0.149803
0.262481
0.154674
0.228362
0.148859
0.26395
0.152547
0.22456
0.125624
0.248083
0.132104
0.219296
0.189093
0.257449
0.14017
0.293286
0.14092
0.2307
0.1521
0.322777
0.120587
0.284907
0.129438
0.28385
0.151894
0.202449
0.182942
0.272699
0.128125
0.282168
0.14889
0.295798
0.129524
0.270534
0.152172
0.245209
0.119319
0.274707
0.119414
0.299679
0.11875
0.237862
0.133038
0.258543
0.136158
0.257911
0.116701
0.282867
0.129849
0.270251
0.164946
0.294312
0.115356
0.233917
0.156613
0.319283
0.141053
0.287809
0.171858
0.20054
0.186944
0.286527
0.119227
0.254576
0.13287
0.266894
0.16253
0.263611
0.130706
0.202299
0.18656
0.196217
0.18101
0.266618
0.161012
0.290162
0.124137
0.266851
0.119434
0.236885
0.146792
0.241811
0.214142
0.264811
0.142528
0.278838
0.129461
0.309801
0.142383
0.256575
0.178784
0.272444
0.127909
0.280266
0.119465
0.245039
0.185062
0.263671
0.133602
0.238896
0.168355
0.263739
0.133789
0.287817
0.17543
0.252749
0.173815
0.236841
0.142653
0.282291
0.135508
0.250594
0.171629
0.228497
0.188681
0.212664
0.182708
0.221704
0.191802
0.224039
0.202947
0.257344
0.185731
0.276244
0.128678
0.216644
0.195334
0.249003
0.163587
0.205314
0.182633
0.307545
0.133745
0.192146
0.173159
0.242823
0.168916
0.245646
0.166388
0.231841
0.213099
0.262784
0.1509
0.248118
0.156688
0.200864
0.181988
0.249641
0.178569
0.237058
0.196848
0.290007
0.142528
0.252581
0.174667
0.201835
0.182739
0.266985
0.196253
0.223578
0.199475
0.255124
0.176836
0.256478
0.185455
0.275853
0.165957
0.206283
0.190721
0.243195
0.18475
0.256032
0.118576
0.221879
0.196822
0.258277
0.177498
0.239655
0.216974
0.193131
0.17425
0.229927
0.196169
0.226942
0.198669
0.277879
0.152184
0.246364
0.166112
0.225536
0.210321
0.235425
0.200369
0.262231
0.192553
0.219917
0.204344
0.206535
0.187928
0.254265
0.166441
0.23362
0.186093
0.22556
0.208632
0.257645
0.177864
0.204627
0.190319
0.281312
0.186744
0.211332
0.195358
0.211776
0.193032
0.251507
0.187405
0.220228
0.199391
0.212497
0.194922
0.256823
0.17344
0.24665
0.147518
0.201121
0.185488
0.224183
0.198001
0.217863
0.196041
0.265733
0.189397
0.240611
0.20328
0.254171
0.198195
0.203079
0.188336
0.239951
0.184238
0.245067
0.180211
0.250032
0.173821
0.225071
0.208368
0.221688
0.203043
0.248209
0.165746
0.206791
0.192554
0.242836
0.197793
0.231781
0.193405
0.235492
0.20389
0.218368
0.202005
0.25203
0.206998
0.218926
0.203281
0.261001
0.188242
0.229683
0.180318
0.222809
0.205792
0.231299
0.196632
0.235226
0.192765
0.226608
0.211073
0.22804
0.197334
0.224019
0.202789
0.22062
0.202062
0.210322
0.180365
0.225182
0.202104
0.228059
0.202769
0.237935
0.217295
0.210937
0.186531
0.22094
0.199077
0.268667
0.201223
0.254838
0.213676
0.24505
0.190652
0.223133
0.207845
0.234617
0.2025
0.243281
0.17287
0.209786
0.196311
0.218133
0.19989
0.256436
0.217933
