# vtk DataFile Version 3.0
Tree
ASCII
DATASET POLYDATA
POINTS 1582 float
162774 225274 273.8
162774 225274 10273.8
141774 225774 23773.8
144122 214254 30497.8
143417 217710 28480.6
131774 208530 51773.8
135267 211284 44785.8
148774 204006 61773.8
132822 209356 49677.4
114774 201182 53773.8
132088 208778 51145
125774 198526 69773.8
145851 204030 60882.6
153774 195774 78005.8
150129 199571 70129
165226 189774 68773.8
118174 201932 54067.8
104254 190774 63773.8
108430 194121 60861.8
111774 189974 81773.8
154106 195983 76896.6
165258 187774 89773.8
153873 195837 77673
136462 195774 90773.8
162379 190599 70399.8
174010 176774 77773.8
105507 191778 62900.2
91773.8 179258 62773.8
167729 184239 73791.8
172058 166774 62773.8
164666 187881 88733
175890 178774 100774
109701 192545 68808.6
95773.8 181262 79773.8
110234 190366 79813
104774 187818 92773.8
137641 195297 90501.4
120774 193998 104774
172793 177847 77920.2
181022 165774 88773.8
144919 195627 87823.4
139774 195998 110774
171383 170647 67750.2
178058 150774 70773.8
173919 163095 68899
172054 148774 53773.8
173715 179273 98223
181998 164774 105774
95040.2 181498 64638.2
80773.8 163958 75773.8
97355.4 183056 79905
85505.8 174774 92773.8
143376 195738 94708.6
155774 193982 106774
177101 152281 69707.8
179202 137774 66773.8
86695.4 169802 68239.4
81541.8 159774 64773.8
104848 187978 89834.6
94773.8 184050 96773.8
124908 194631 103300
117774 196014 121774
101826 186800 91916.2
100774 191774 110650
141767 195915 109553
142774 195998 124774
178067 145607 68358.2
183974 135774 79773.8
179009 138349 66781.4
180010 126774 63773.8
182202 138724 76349
183998 141774 89773.8
179817 165677 87849
183774 155082 94773.8
180041 167009 105695
183998 152774 119774
83087.8 162782 65813.4
78773.8 149774 73593.8
81812.6 164390 75203
76773.8 155774 86225.8
81448.6 157839 68770.2
82353.8 144774 61773.8
155198 193086 105153
167886 188774 114774
87132.6 175493 92855.8
77773.8 167878 107774
81330.2 170772 102105
76325.8 156774 101774
119497 196635 120342
115774 199814 137774
85391.8 174077 95630.6
85577.8 182774 110774
179709 130246 64676.2
177998 116774 47773.8
141021 196249 120987
132774 197998 135774
142248 196073 123638
156774 193998 125774
136568 197193 128972
145774 195978 144774
165869 188193 111975
175182 181774 115774
178785 122971 55549
182774 128774 39885.8
183423 139678 87997.8
183998 137774 98773.8
182649 153677 117793
181998 131774 132774
183067 139878 122611
183970 131774 121774
182490 135502 128099
183218 139774 137774
182999 138492 134871
183998 157774 142774
115410 198110 134607
105998 193774 148774
79818.2 150917 73190.6
79545.8 137774 82773.8
82482.2 146967 64922.6
85533.8 127774 66773.8
183135 139287 136671
179874 132774 145774
78700.2 159433 103034
80773.8 140774 109950
79711.4 148377 105551
79553.8 137774 99773.8
85680.2 178890 107879
86773.8 176774 127958
141539 196537 137505
132774 198066 152774
86968.6 179868 115806
92773.8 189958 125774
85022.2 132256 65153.8
87765.8 122774 58773.8
151409 194579 126955
163066 191774 140774
91756.2 186957 125132
95773.8 190774 134874
182960 146839 141781
182002 151774 152774
169407 185754 113419
171774 185258 126774
79246.2 153463 104394
81021.8 149774 117774
173188 181844 115833
181978 167774 124774
108947 193109 147321
105774 186446 159774
182994 133439 122558
179774 118774 124806
86832.2 177702 124312
83773.8 166774 128790
180161 134913 144575
173774 131774 159970
107995 191111 151057
115774 194774 163274
80156.2 138957 100214
83553.8 125774 91773.8
133216 198435 151706
127774 200002 160774
85845.4 129411 63239.8
88353.8 130774 49773.8
145552 195725 142675
154774 192774 147954
179960 133416 145414
174002 117774 140774
85829 128240 66647.8
89505.8 114774 71773.8
132906 198177 152453
140774 195890 168774
87782.2 123726 58719.8
91585.8 116774 49773.8
171708 184664 122099
177218 179774 126774
88108.6 119891 69825.8
91657.8 110774 61773.8
183536 153772 141087
183886 162774 133774
81081.8 141567 109298
85021.8 131774 113774
179478 119773 123697
175958 109774 122774
81573.4 149274 115732
85021.8 143774 125774
106618 188218 156461
97701.8 173774 155774
176712 133218 152888
168006 119774 154774
84691.4 170052 127447
88325.8 164774 139774
177014 112774 123051
177782 106774 112774
181551 150640 152017
179022 154774 165774
102412 182996 154666
93773.8 178774 144966
173735 118950 141699
169254 109774 139774
83579 127653 94052.6
90285.8 113774 91773.8
86944.6 166780 135089
87577.8 153774 136774
176275 110674 122857
170774 105666 130774
82392.2 145432 62718.6
85717.8 143774 49773.8
113191 192372 160496
116774 186774 173974
170618 123807 154208
162774 122774 165978
89742.2 115574 70796.2
95485.8 104774 70773.8
114553 190245 165617
109006 179774 169774
175125 132438 156712
175774 140774 164970
81187.4 149624 117161
83017.8 155774 125774
165945 123975 162530
165814 128774 170774
82278.2 131949 96393.8
88361.8 119774 105774
99780.6 175882 156255
100774 165774 161978
178483 154415 165144
175994 156774 173774
84064.2 144599 121481
88773.8 132774 125954
115665 199303 136824
118774 199998 151774
175475 136939 161171
170774 135590 168774
98325.4 174406 155918
95485.8 163774 152774
175565 181241 125371
177786 178774 140774
139936 194909 167024
146774 189774 181178
177139 155689 169804
176774 164774 171890
87922.2 134539 124021
91773.8 122574 120774
176053 110044 122799
171774 100366 119774
177542 155307 168406
173882 147774 174774
93872.2 107574 69521.8
98317.8 97773.8 61773.8
152007 193659 146370
151774 191994 159774
176709 107194 115391
172042 94773.8 105774
90159 115145 93160.6
95581.8 106774 94773.8
111335 182319 169474
111774 171774 178022
142027 192953 174501
137774 193774 185042
168044 121173 155140
157270 112774 159774
88578.6 120736 104643
94349.8 112774 109774
175917 180815 134431
171258 185774 142774
183331 156953 142759
181186 168774 149774
164874 127374 169457
158774 130774 181978
88518.2 133303 125374
93773.8 128774 132970
172023 101435 119622
167774 93125.8 115774
176913 161321 171097
172774 164774 181886
101126 168891 161274
105774 162774 171258
163977 117217 155920
159774 109114 151774
93837 109533 92972.6
99773.8 100774 86861.8
101122 166073 161996
101774 154774 165074
173655 148827 173907
167842 140774 180774
151844 192493 155753
159774 189194 160774
174678 163186 176923
170774 153774 185290
93063.4 114441 107418
99589.8 104774 105774
152084 191793 159305
153774 189026 168774
172791 164485 181650
169222 165774 189774
111949 171785 177077
112774 162774 181974
168361 94445 115833
163774 86521.8 108774
94490.2 113057 109411
100774 107774 117114
154646 192805 147681
163942 189774 151774
171435 164975 184737
167190 173774 186774
93515 128905 131837
100358 122774 139774
180127 167977 148858
176774 177290 153774
97043 104803 89672.6
104774 97573.8 95773.8
104939 163165 169222
108774 153774 175970
171879 106434 127256
161774 95773.8 129962
102455 99742.6 93943.4
108774 93573.8 88773.8
175225 101887 109699
177774 100338 98773.8
98961 108926 113334
107126 99773.8 113774
98161.4 98815 63445.8
105774 86309.8 58773.8
177009 100803 102051
173198 90773.8 93773.8
164875 87996.2 109000
162794 81773.8 96773.8
96115.4 126575 134853
98341.8 130774 143774
163942 97779.8 128225
157774 89541.8 122774
101054 94063 61670.2
107506 88773.8 68773.8
171182 156928 184249
163930 152774 198774
108298 156169 175257
112774 152774 183890
105570 90360.6 66642.6
105122 93773.8 77773.8
177211 175123 153427
173430 179774 160774
104707 102277 112500
110258 94773.8 105774
145952 190247 178644
152774 185206 179774
100544 108453 116567
106774 107774 129138
172874 91500.6 94129.8
168774 84773.8 87949.8
102911 108195 121344
99773.8 116330 129774
174445 95035.4 97139.8
177810 94773.8 86773.8
167357 171254 187069
157774 177774 193970
99954.6 95868.6 62345
100774 93573.8 49773.8
108631 154493 175756
111774 141774 177926
163751 84636.2 102398
152774 79549.8 99773.8
106925 89249.8 68134.6
115138 81773.8 69773.8
171316 88944.6 91781.4
174774 87665.8 82773.8
104379 108035 124306
112774 100774 125950
97801 131040 142521
98773.8 140774 152030
164104 86964.2 108841
153774 82773.8 111290
105651 87208.2 59555.8
113998 77773.8 58773.8
162769 82252.6 97032.2
160774 79673.8 87773.8
91614.2 111731 62110.6
95557.8 103774 53773.8
112703 153301 183615
117638 150774 192774
98404.2 137075 148417
93773.8 145774 147062
173799 178798 159961
168774 181774 169134
112808 79901 59825
121598 74773.8 64773.8
111481 145945 178405
117538 139774 186774
169180 85199.8 88005.8
166774 79773.8 80961.8
112184 142587 178391
115602 134774 179774
109584 103533 125325
117090 103774 137774
111897 142018 178065
110774 135590 170774
98663 139664 150946
102774 141774 161290
176200 163857 171826
172090 172774 174774
112526 165477 180505
116530 164774 189774
174120 87326.2 83693.8
176774 82773.8 71973.8
117351 151862 191803
122254 151774 199774
111845 101422 124997
119586 93773.8 121774
166424 80110.2 81275
162774 74773.8 74029.8
117552 151100 192483
121774 141774 195978
114838 103701 134039
112006 109774 140774
115269 136949 180066
121774 130774 185322
88435.8 155336 136660
91545.8 140774 138774
152332 185947 179494
162774 180774 179954
115502 135426 179861
116774 128234 173774
102627 142107 160929
105774 144774 168866
116317 104264 137129
119774 107538 146774
102730 141874 161181
106774 132774 161882
163869 76374.6 76203.4
170774 72513.8 67773.8
122103 143205 195642
127774 136226 198774
116858 103921 137581
124774 96773.8 133958
118737 106556 143881
113774 113774 149986
119681 94703.4 122245
128774 88353.8 119774
118011 105868 141855
127774 101774 145962
112005 109717 140277
109574 114774 144774
124845 103002 144730
132390 96773.8 139774
127019 89567 119538
133774 84773.8 113322
126895 102142 145592
132774 104774 153886
124818 91107.8 120350
125774 86325.8 109774
95635 164936 152431
92773.8 155774 147958
113962 113845 149093
108774 122278 153774
131010 103984 151398
127774 110774 159366
131207 86595.4 115684
141774 85477.8 118774
133715 84960.6 113512
139774 81553.8 108774
128247 88717.8 119703
134774 89601.8 127774
[...]
CELL_DATA 1581
SCALARS radius float
LOOKUP_TABLE default
100
100
100
100
92.9635
92.9635
89.6332
89.6332
86.4222
86.4222
83.3262
83.3262
86.4222
86.4222
83.3262
83.3262
83.3262
83.3262
80.3411
80.3411
80.3411
80.3411
77.463
77.463
77.463
77.463
77.463
77.463
74.6879
74.6879
77.463
77.463
77.463
77.463
72.0123
72.0123
72.0123
72.0123
72.0123
72.0123
74.6879
74.6879
72.0123
72.0123
69.4326
69.4326
74.6879
74.6879
74.6879
74.6879
74.6879
74.6879
72.0123
72.0123
66.9452
66.9452
72.0123
72.0123
69.4326
69.4326
69.4326
69.4326
66.9452
66.9452
69.4326
69.4326
64.547
64.547
62.2346
62.2346
62.2346
62.2346
66.9452
66.9452
72.0123
72.0123
69.4326
69.4326
66.9452
66.9452
66.9452
66.9452
64.547
64.547
72.0123
72.0123
66.9452
66.9452
66.9452
66.9452
69.4326
69.4326
60.0051
60.0051
66.9452
66.9452
64.547
64.547
64.547
64.547
60.0051
60.0051
55.7829
55.7829
60.0051
60.0051
69.4326
69.4326
66.9452
66.9452
64.547
64.547
62.2346
62.2346
64.547
64.547
62.2346
62.2346
64.547
64.547
60.0051
60.0051
64.547
64.547
60.0051
60.0051
64.547
64.547
62.2346
62.2346
60.0051
60.0051
60.0051
60.0051
60.0051
60.0051
55.7829
55.7829
60.0051
60.0051
57.8555
57.8555
62.2346
62.2346
55.7829
55.7829
62.2346
62.2346
64.547
64.547
57.8555
57.8555
57.8555
57.8555
60.0051
60.0051
57.8555
57.8555
60.0051
60.0051
57.8555
57.8555
60.0051
60.0051
55.7829
55.7829
57.8555
57.8555
57.8555
57.8555
53.7845
53.7845
55.7829
55.7829
55.7829
55.7829
57.8555
57.8555
55.7829
55.7829
62.2346
62.2346
60.0051
60.0051
57.8555
57.8555
55.7829
55.7829
55.7829
55.7829
60.0051
60.0051
57.8555
57.8555
55.7829
55.7829
50
50
53.7845
53.7845
53.7845
53.7845
57.8555
57.8555
62.2346
62.2346
55.7829
55.7829
53.7845
53.7845
53.7845
53.7845
53.7845
53.7845
53.7845
53.7845
57.8555
57.8555
51.8578
51.8578
55.7829
55.7829
53.7845
53.7845
53.7845
53.7845
57.8555
57.8555
62.2346
62.2346
51.8578
51.8578
51.8578
51.8578
53.7845
53.7845
53.7845
53.7845
50
50
55.7829
55.7829
55.7829
55.7829
51.8578
51.8578
51.8578
51.8578
55.7829
55.7829
57.8555
57.8555
50
50
51.8578
51.8578
50
50
51.8578
51.8578
53.7845
53.7845
51.8578
51.8578
53.7845
53.7845
50
50
53.7845
53.7845
53.7845
53.7845
48.2088
48.2088
51.8578
51.8578
50
50
48.2088
48.2088
50
50
50
50
53.7845
53.7845
46.4818
46.4818
51.8578
51.8578
51.8578
51.8578
44.8166
44.8166
50
50
51.8578
51.8578
50
50
53.7845
53.7845
43.2111
43.2111
50
50
48.2088
48.2088
46.4818
46.4818
50
50
55.7829
55.7829
44.8166
44.8166
55.7829
55.7829
48.2088
48.2088
50
50
53.7845
53.7845
50
50
48.2088
48.2088
53.7845
53.7845
46.4818
46.4818
44.8166
44.8166
48.2088
48.2088
44.8166
44.8166
46.4818
46.4818
46.4818
46.4818
48.2088
48.2088
46.4818
46.4818
50
50
44.8166
44.8166
51.8578
51.8578
41.6631
41.6631
48.2088
48.2088
46.4818
46.4818
48.2088
48.2088
43.2111
43.2111
48.2088
48.2088
43.2111
43.2111
46.4818
46.4818
48.2088
48.2088
44.8166
44.8166
46.4818
46.4818
53.7845
53.7845
46.4818
46.4818
44.8166
44.8166
43.2111
43.2111
43.2111
43.2111
44.8166
44.8166
46.4818
46.4818
43.2111
43.2111
41.6631
41.6631
41.6631
41.6631
43.2111
43.2111
46.4818
46.4818
48.2088
48.2088
46.4818
46.4818
43.2111
43.2111
40.1706
40.1706
44.8166
44.8166
41.6631
41.6631
40.1706
40.1706
41.6631
41.6631
50
50
46.4818
46.4818
40.1706
40.1706
41.6631
41.6631
38.7315
38.7315
40.1706
40.1706
43.2111
43.2111
38.7315
38.7315
37.344
37.344
36.0062
36.0062
38.7315
38.7315
37.344
37.344
38.7315
38.7315
36.0062
36.0062
36.0062
36.0062
34.7163
34.7163
37.344
37.344
50
50
34.7163
34.7163
33.4726
33.4726
34.7163
34.7163
33.4726
33.4726
34.7163
34.7163
48.2088
48.2088
36.0062
36.0062
38.7315
38.7315
44.8166
44.8166
33.4726
33.4726
34.7163
34.7163
43.2111
43.2111
36.0062
36.0062
34.7163
34.7163
33.4726
33.4726
96.4176
96.4176
92.9635
92.9635
89.6332
89.6332
86.4222
86.4222
83.3262
83.3262
86.4222
86.4222
83.3262
83.3262
83.3262
83.3262
80.3411
80.3411
80.3411
80.3411
80.3411
80.3411
80.3411
80.3411
80.3411
80.3411
77.463
77.463
74.6879
74.6879
77.463
77.463
74.6879
74.6879
77.463
77.463
72.0123
72.0123
69.4326
69.4326
80.3411
80.3411
72.0123
72.0123
72.0123
72.0123
69.4326
69.4326
74.6879
74.6879
77.463
77.463
69.4326
69.4326
69.4326
69.4326
74.6879
74.6879
69.4326
69.4326
66.9452
66.9452
64.547
64.547
69.4326
69.4326
69.4326
69.4326
66.9452
66.9452
66.9452
66.9452
72.0123
72.0123
72.0123
72.0123
66.9452
66.9452
69.4326
69.4326
69.4326
69.4326
64.547
64.547
64.547
64.547
64.547
64.547
66.9452
66.9452
64.547
64.547
62.2346
62.2346
64.547
64.547
66.9452
66.9452
62.2346
62.2346
62.2346
62.2346
69.4326
69.4326
60.0051
60.0051
60.0051
60.0051
60.0051
60.0051
53.7845
53.7845
66.9452
66.9452
62.2346
62.2346
64.547
64.547
64.547
64.547
69.4326
69.4326
62.2346
62.2346
66.9452
66.9452
57.8555
57.8555
64.547
64.547
62.2346
62.2346
60.0051
60.0051
64.547
64.547
69.4326
69.4326
66.9452
66.9452
62.2346
62.2346
60.0051
60.0051
57.8555
57.8555
50
50
62.2346
62.2346
66.9452
66.9452
60.0051
60.0051
62.2346
62.2346
64.547
64.547
62.2346
62.2346
62.2346
62.2346
57.8555
57.8555
66.9452
66.9452
62.2346
62.2346
60.0051
60.0051
57.8555
57.8555
62.2346
62.2346
60.0051
60.0051
72.0123
72.0123
60.0051
60.0051
57.8555
57.8555
66.9452
66.9452
64.547
64.547
53.7845
53.7845
57.8555
57.8555
57.8555
57.8555
64.547
64.547
57.8555
57.8555
60.0051
60.0051
60.0051
60.0051
55.7829
55.7829
60.0051
60.0051
51.8578
51.8578
60.0051
60.0051
57.8555
57.8555
55.7829
55.7829
57.8555
57.8555
57.8555
57.8555
57.8555
57.8555
57.8555
57.8555
55.7829
55.7829
62.2346
62.2346
60.0051
60.0051
53.7845
53.7845
62.2346
62.2346
55.7829
55.7829
55.7829
55.7829
60.0051
60.0051
57.8555
57.8555
57.8555
57.8555
53.7845
53.7845
57.8555
57.8555
57.8555
57.8555
57.8555
57.8555
53.7845
53.7845
57.8555
57.8555
57.8555
57.8555
55.7829
55.7829
53.7845
53.7845
60.0051
60.0051
53.7845
53.7845
53.7845
53.7845
57.8555
57.8555
48.2088
48.2088
55.7829
55.7829
51.8578
51.8578
51.8578
51.8578
51.8578
51.8578
55.7829
55.7829
51.8578
51.8578
51.8578
51.8578
50
50
55.7829
55.7829
50
50
55.7829
55.7829
51.8578
51.8578
53.7845
53.7845
57.8555
57.8555
60.0051
60.0051
53.7845
53.7845
50
50
50
50
51.8578
51.8578
51.8578
51.8578
48.2088
48.2088
57.8555
57.8555
48.2088
48.2088
50
50
51.8578
51.8578
51.8578
51.8578
50
50
50
50
51.8578
51.8578
51.8578
51.8578
53.7845
53.7845
53.7845
53.7845
51.8578
51.8578
46.4818
46.4818
51.8578
51.8578
48.2088
48.2088
50
50
48.2088
48.2088
46.4818
46.4818
51.8578
51.8578
50
50
50
50
50
50
50
50
48.2088
48.2088
50
50
48.2088
48.2088
48.2088
48.2088
48.2088
48.2088
50
50
50
50
43.2111
43.2111
55.7829
55.7829
48.2088
48.2088
48.2088
48.2088
50
50
50
50
43.2111
43.2111
51.8578
51.8578
53.7845
53.7845
48.2088
48.2088
41.6631
41.6631
48.2088
48.2088
44.8166
44.8166
50
50
50
50
51.8578
51.8578
48.2088
48.2088
50
50
51.8578
51.8578
51.8578
51.8578
46.4818
46.4818
46.4818
46.4818
46.4818
46.4818
41.6631
41.6631
53.7845
53.7845
43.2111
43.2111
48.2088
48.2088
40.1706
40.1706
50
50
41.6631
41.6631
43.2111
43.2111
46.4818
46.4818
48.2088
48.2088
46.4818
46.4818
43.2111
43.2111
40.1706
40.1706
44.8166
44.8166
43.2111
43.2111
46.4818
46.4818
44.8166
44.8166
44.8166
44.8166
51.8578
51.8578
43.2111
43.2111
43.2111
43.2111
44.8166
44.8166
38.7315
38.7315
44.8166
44.8166
44.8166
44.8166
41.6631
41.6631
46.4818
46.4818
44.8166
44.8166
46.4818
46.4818
44.8166
44.8166
36.0062
36.0062
43.2111
43.2111
38.7315
38.7315
41.6631
41.6631
40.1706
40.1706
40.1706
40.1706
43.2111
43.2111
43.2111
43.2111
37.344
37.344
37.344
37.344
34.7163
34.7163
43.2111
43.2111
40.1706
40.1706
40.1706
40.1706
46.4818
46.4818
51.8578
51.8578
41.6631
41.6631
53.7845
53.7845
46.4818
46.4818
34.7163
34.7163
44.8166
44.8166
37.344
37.344
33.4726
33.4726
32.2735
32.2735
32.2735
32.2735
32.2735
32.2735
37.344
37.344
34.7163
34.7163
37.344
37.344
41.6631
41.6631
33.4726
33.4726
32.2735
32.2735
34.7163
34.7163
32.2735
32.2735
38.7315
38.7315
89.6332
89.6332
89.6332
89.6332
80.3411
80.3411
83.3262
83.3262
77.463
77.463
80.3411
80.3411
77.463
77.463
74.6879
74.6879
72.0123
72.0123
77.463
77.463
74.6879
74.6879
74.6879
74.6879
74.6879
74.6879
69.4326
69.4326
72.0123
72.0123
69.4326
69.4326
69.4326
69.4326
74.6879
74.6879
74.6879
74.6879
74.6879
74.6879
66.9452
66.9452
72.0123
72.0123
66.9452
66.9452
72.0123
72.0123
72.0123
72.0123
69.4326
69.4326
72.0123
72.0123
66.9452
66.9452
69.4326
69.4326
69.4326
69.4326
62.2346
62.2346
69.4326
69.4326
64.547
64.547
66.9452
66.9452
64.547
64.547
66.9452
66.9452
69.4326
69.4326
64.547
64.547
60.0051
60.0051
64.547
64.547
62.2346
62.2346
69.4326
69.4326
57.8555
57.8555
60.0051
60.0051
60.0051
60.0051
66.9452
66.9452
62.2346
62.2346
64.547
64.547
66.9452
66.9452
69.4326
69.4326
57.8555
57.8555
62.2346
62.2346
62.2346
62.2346
64.547
64.547
60.0051
60.0051
62.2346
62.2346
57.8555
57.8555
55.7829
55.7829
60.0051
60.0051
48.2088
48.2088
64.547
64.547
60.0051
60.0051
64.547
64.547
62.2346
62.2346
62.2346
62.2346
60.0051
60.0051
64.547
64.547
55.7829
55.7829
60.0051
60.0051
64.547
64.547
62.2346
62.2346
55.7829
55.7829
62.2346
62.2346
46.4818
46.4818
60.0051
60.0051
60.0051
60.0051
62.2346
62.2346
64.547
64.547
55.7829
55.7829
60.0051
60.0051
60.0051
60.0051
69.4326
69.4326
60.0051
60.0051
57.8555
57.8555
62.2346
62.2346
57.8555
57.8555
62.2346
62.2346
57.8555
57.8555
66.9452
66.9452
62.2346
62.2346
60.0051
60.0051
55.7829
55.7829
62.2346
62.2346
62.2346
62.2346
57.8555
57.8555
60.0051
60.0051
53.7845
53.7845
50
50
55.7829
55.7829
55.7829
55.7829
62.2346
62.2346
53.7845
53.7845
60.0051
60.0051
55.7829
55.7829
55.7829
55.7829
57.8555
57.8555
51.8578
51.8578
53.7845
53.7845
51.8578
51.8578
55.7829
55.7829
55.7829
55.7829
55.7829
55.7829
55.7829
55.7829
60.0051
60.0051
55.7829
55.7829
50
50
55.7829
55.7829
51.8578
51.8578
48.2088
48.2088
55.7829
55.7829
50
50
53.7845
53.7845
50
50
53.7845
53.7845
51.8578
51.8578
51.8578
51.8578
51.8578
51.8578
53.7845
53.7845
55.7829
55.7829
53.7845
53.7845
51.8578
51.8578
50
50
51.8578
51.8578
53.7845
53.7845
48.2088
48.2088
57.8555
57.8555
46.4818
46.4818
51.8578
51.8578
100
96.4176
96.4176
92.9635
92.9635
86.4222
86.4222
83.3262
83.3262
80.3411
80.3411
89.6332
89.6332
80.3411
80.3411
89.6332
89.6332
77.463
77.463
86.4222
86.4222
74.6879
74.6879
74.6879
74.6879
83.3262
83.3262
72.0123
72.0123
72.0123
72.0123
80.3411
80.3411
77.463
77.463
69.4326
69.4326
74.6879
74.6879
74.6879
74.6879
66.9452
66.9452
64.547
64.547
72.0123
72.0123
72.0123
72.0123
62.2346
62.2346
69.4326
69.4326
69.4326
69.4326
66.9452
66.9452
60.0051
60.0051
69.4326
69.4326
66.9452
66.9452
66.9452
66.9452
64.547
64.547
64.547
64.547
57.8555
57.8555
64.547
64.547
62.2346
62.2346
72.0123
72.0123
64.547
64.547
66.9452
66.9452
62.2346
62.2346
60.0051
60.0051
62.2346
62.2346
60.0051
60.0051
69.4326
69.4326
55.7829
55.7829
60.0051
60.0051
62.2346
62.2346
57.8555
57.8555
55.7829
55.7829
53.7845
53.7845
57.8555
57.8555
60.0051
60.0051
57.8555
57.8555
53.7845
53.7845
60.0051
60.0051
55.7829
55.7829
55.7829
55.7829
55.7829
55.7829
55.7829
55.7829
53.7845
53.7845
51.8578
51.8578
51.8578
51.8578
55.7829
55.7829
57.8555
57.8555
53.7845
53.7845
51.8578
51.8578
53.7845
53.7845
51.8578
51.8578
50
50
50
50
51.8578
51.8578
50
50
48.2088
48.2088
46.4818
46.4818
50
50
48.2088
48.2088
46.4818
46.4818
48.2088
48.2088
48.2088
48.2088
46.4818
46.4818
50
50
44.8166
44.8166
46.4818
46.4818
46.4818
46.4818
43.2111
43.2111
46.4818
46.4818
44.8166
44.8166
43.2111
43.2111
43.2111
43.2111
44.8166
44.8166
41.6631
41.6631
43.2111
43.2111
46.4818
46.4818
43.2111
43.2111
44.8166
44.8166
41.6631
41.6631
41.6631
41.6631
40.1706
40.1706
38.7315
38.7315
40.1706
40.1706
40.1706
40.1706
40.1706
40.1706
40.1706
40.1706
44.8166
44.8166
43.2111
43.2111
38.7315
38.7315
38.7315
38.7315
38.7315
38.7315
43.2111
43.2111
37.344
37.344
41.6631
41.6631
36.0062
36.0062
38.7315
38.7315
37.344
37.344
40.1706
40.1706
34.7163
34.7163
36.0062
36.0062
34.7163
34.7163
33.4726
33.4726
32.2735
32.2735
40.1706
40.1706
33.4726
33.4726
32.2735
32.2735
31.1173
31.1173
31.1173
31.1173
30.0026
30.0026
28.9278
28.9278
36.0062
36.0062
34.7163
34.7163
32.2735
32.2735
33.4726
33.4726
31.1173
31.1173
27.8914
27.8914
27.8914
27.8914
30.0026
30.0026
32.2735
32.2735
26.8923
26.8923
25.9289
25.9289
