# vtk DataFile Version 3.0
Tree
ASCII
DATASET POLYDATA
POINTS 1582 float
162774 225274 273.8
162774 225274 10273.8
141774 225774 23773.8
141774 213262 31773.8
141774 217015 29373.8
133774 208070 52773.8
136814 211469 43881.8
151774 204002 58773.8
138302 213133 39529.4
112774 201930 45773.8
133261 208129 50910.2
120774 198050 66773.8
128516 204299 56938.2
137774 198774 75297.8
149415 204203 56433
163774 191042 70773.8
123097 199925 63823
103774 190774 63157.8
159800 194418 69281.8
163082 189774 87773.8
117300 197179 63623.4
108774 188054 82773.8
134997 200431 69789.8
125774 193978 88773.8
162582 192055 70326.2
173990 173774 71773.8
163711 189768 83761
173906 180774 94773.8
137057 199231 75075.4
142774 195998 93773.8
169711 178912 69587
171950 164774 59773.8
172706 175315 71117.8
177890 172774 84773.8
106227 190496 64247
87477.8 172774 69773.8
99561 184250 68193
94773.8 180062 81773.8
125925 196034 87179
115774 193946 104774
172367 180292 93209.8
180062 168774 101774
109140 190229 82097.8
102774 188002 96773.8
140810 196871 91245.4
139774 195998 111774
171278 169015 62717.8
178774 151774 72253.8
171809 165176 61045
173774 149774 56445.8
89187.4 173646 70661.4
79773.8 162774 74749.8
140251 196399 102331
152774 194066 109774
175972 160168 69626.2
181782 158774 82773.8
177632 172665 100876
181942 167774 116774
86363.4 170385 71887.8
81773.8 169386 88773.8
83150.6 169685 83708.2
87121.8 179774 97773.8
118795 194799 102403
117774 196014 121774
104213 189131 94753.8
100774 191774 110650
140323 196106 111044
142774 195998 124774
163421 189771 85607
152774 193998 89773.8
150793 194137 107204
162774 190070 105774
178525 152332 72527
183998 134774 80773.8
181042 144255 76320.6
180002 123774 61773.8
179303 134206 65352.6
176018 131774 53773.8
180523 158310 81043.8
183998 152774 95773.8
180649 169241 112005
183998 148774 120774
182558 157155 115463
183998 145774 109774
143596 195756 120949
154774 194002 131774
83101.8 164135 73153.4
79541.8 144774 73773.8
81240.2 151130 72129.4
82773.8 141774 63577.8
80772.2 163182 74271
75561.8 155774 89773.8
181985 160781 114425
183998 156774 132774
143021 195925 123626
141774 196002 141774
77246.2 158194 87688.2
77545.8 158774 104774
179484 126025 61206.2
178054 113774 48773.8
85037.4 175963 94950.6
82161.8 177774 112774
117541 196741 121175
115774 199998 141774
76067 156500 89148.2
77549.8 142774 87773.8
159190 190797 107929
173974 182774 116774
142247 195973 134878
129774 198006 140774
77384.2 158461 95547.4
78353.8 144774 103774
178543 132260 56652.6
183970 127774 38773.8
151421 194528 128526
163774 191230 124774
183207 150978 120616
182774 138774 135958
183609 147447 109770
183998 135774 98773.8
183200 136774 80831.4
183998 130774 89773.8
83803.8 178405 109221
88345.8 185774 121774
183077 147317 125219
182774 129658 122774
183515 158015 131730
183998 157774 144774
114712 197798 135404
103774 192426 147774
82493 143977 67842.2
85477.8 128774 67773.8
141380 196268 141320
137774 197978 155774
116013 197311 128859
100774 194774 133954
77985.4 149975 100648
79561.8 150774 114774
182296 139400 133339
178774 126774 137962
154603 193709 130957
165774 189994 137774
182630 138962 135172
179774 137774 151898
82654.6 177963 111708
85017.8 171774 127774
183589 156719 142092
182006 149774 150774
182022 131047 122298
180774 120774 119954
101039 191731 110229
98773.8 193886 122774
179705 136807 148065
173774 128578 156774
107007 193085 146051
105774 186774 159322
77710.2 144660 88565
81553.8 129774 90773.8
109319 194499 142857
115774 196534 159774
85005 132835 66257.8
89561.8 119774 56773.8
113882 195981 150306
125774 200002 153774
85045.4 174005 124865
89773.8 175774 137982
179165 128706 136407
174774 116222 135774
85032.6 172979 126203
81773.8 162798 124774
182481 151857 148169
181774 154774 158790
103690 193346 132610
93773.8 186774 134978
88595 123720 58214.6
91445.8 122774 48773.8
169747 184917 117023
175774 181258 127774
81780.6 130827 89683.8
85657.8 120774 88773.8
105889 186708 156322
104774 179326 163774
177847 124961 136217
170774 118774 147978
85759.8 129210 67859.4
89485.8 114774 74773.8
115326 195578 158617
116226 190774 169774
83062.6 141985 63977.8
85537.8 137774 55773.8
78976.2 146443 103609
84353.8 134774 115774
141655 196082 141638
153970 192774 149774
88642.2 119099 71373.8
92773.8 109574 67773.8
105554 184493 158557
97773.8 174050 155774
139335 197068 154391
141970 194774 173774
89625.4 120667 56528.6
93537.8 111774 49773.8
83794.2 169110 125660
87553.8 157774 137774
182639 160711 124575
181962 168774 133774
174115 129913 155402
164774 122242 163774
115288 191615 166022
111774 184774 170866
180271 121448 120499
174774 105774 119326
82943.8 127811 89410.6
86285.8 121774 99773.8
88775.4 174316 135671
91761.8 168774 146774
174825 117399 136033
169210 107774 136774
84970.6 139528 57105.4
87673.8 139774 44773.8
142967 194571 164901
149294 190774 169774
85283 123585 96665
90773.8 113578 95773.8
85353.8 162435 130476
85533.8 149774 129774
176423 110476 119678
176774 104254 109774
180937 154727 157982
177774 158774 171078
96748.6 188745 134267
95773.8 181774 145970
171999 119324 144634
165886 110774 146774
177134 133636 151440
173774 139578 167774
92154.2 111053 67765.8
96317.8 101774 60773.8
100730 178018 156831
101774 166774 165074
169187 115391 145618
163774 115114 155774
89863.4 115347 73871.8
94773.8 105582 78773.8
113284 186064 170277
113774 176886 178774
175269 107185 119431
169234 101774 127774
83240.6 138484 113915
86773.8 138774 125958
181559 167997 132275
177774 178774 140810
168231 126315 161791
160774 127774 175326
85713.8 138687 122345
92341.8 126774 127774
174922 106197 119357
169774 97113.8 117774
178976 157236 166101
174526 149774 173774
101212 168830 162412
99773.8 159774 161958
171318 99838.6 118249
171774 94181.8 106774
177915 159076 169895
175774 164774 175074
113548 181108 174865
108350 171774 172774
142400 194299 173198
143122 191774 186774
173878 137301 164064
168038 134774 172774
87809 118982 96255
94773.8 112774 109954
115639 196247 159427
125774 199814 165774
183875 157457 143969
181186 168774 149774
90688.2 114237 95802.2
97573.8 104774 94773.8
176654 177509 139317
171774 185258 144774
164860 122948 162948
154774 114774 163962
92684.2 114636 105844
98773.8 105574 104774
151334 193247 149117
158894 189774 160774
162880 128634 173640
159774 132514 184774
94602.6 107255 79165
99773.8 100398 85773.8
176861 105053 110191
177386 101774 102774
90423 117364 103111
91505.8 120774 115774
169985 97669.4 117494
164774 89597.8 113774
175418 152386 172785
169774 149774 185890
176055 162008 174211
169982 165774 187774
95622.6 103762 63781
101762 92773.8 64773.8
113677 177145 177823
113774 165774 183990
166611 91887.4 113816
164866 85773.8 104774
94817.8 112735 108861
101506 106774 114774
101605 167391 164275
107546 157774 173774
171385 94253.8 107568
170774 89589.8 99773.8
98593.4 98377.8 63147.4
101494 92773.8 56773.8
180878 167673 148756
177014 177774 152774
172491 166206 180143
168534 173774 183774
91062.6 130523 127581
99773.8 123774 139970
172251 183555 144421
165774 188034 152774
99289.8 101602 85249.4
106290 95773.8 94773.8
169153 102232 126766
163774 98773.8 131326
101390 99853.4 88106.6
108234 93773.8 85773.8
165388 99811.4 129958
160774 93773.8 127322
100487 107403 113037
107126 99773.8 113774
177359 101983 102907
177890 98773.8 94773.8
170738 151319 183932
165774 155774 197182
101748 93362.2 64334.6
107774 86169.8 64773.8
170544 90013.8 100028
169254 85773.8 91773.8
101200 106963 114253
103774 108774 125134
94214.2 129219 133193
96773.8 134226 143774
161459 94563.8 127144
156774 87773.8 120970
92343.4 127426 127395
97013.8 117774 125774
113608 167164 182321
112774 153774 183958
170063 150237 185303
163190 141774 190774
112819 156689 182790
111486 148774 178774
164241 86584.6 106235
157042 79773.8 97773.8
96749.8 132391 141757
101538 130774 149774
177633 174726 152768
171774 181258 162774
168939 170940 183613
159274 176774 193774
142617 193541 177271
149774 186774 181134
105507 95723.8 85377
109774 89029.8 75773.8
148249 188863 179057
156774 184774 175958
102384 107796 119258
110774 101574 123774
177711 98960.6 95416.6
177858 95773.8 87773.8
96136.2 102508 61047.4
97553.8 99773.8 51773.8
170095 87058.6 92909.8
172774 86773.8 83969.8
107586 103938 122058
110774 105774 133130
175791 176356 157587
175774 173774 167894
157619 88907 121282
153774 82773.8 111290
107547 87109.8 65075.4
117774 79013.8 67773.8
96766.6 133675 143169
96773.8 144382 151774
169506 86159.4 92114.6
161046 79773.8 87773.8
111422 83477 64921.8
115506 76773.8 58773.8
111886 151149 179979
115774 138774 183258
98105.8 125407 137937
103130 115774 135774
113052 147436 180962
110774 138390 173774
112787 154649 183607
117774 147774 193026
96771 140313 148504
101774 139774 158034
171878 180318 162353
164774 183998 169774
109562 105076 128923
118578 99773.8 132774
113724 166191 183489
117774 160774 193074
164261 82200.2 89423.4
164774 78773.8 79893.8
116278 149836 190200
120318 153774 197774
116391 79734.6 66215.4
123774 73005.8 63773.8
172857 87270.6 85516.2
178534 89773.8 77773.8
96769.4 137791 146477
91533.8 147774 142774
165687 80387 83274.6
172870 79773.8 74773.8
117325 148393 192178
120346 138774 191774
113709 102637 130694
117666 104774 140774
165306 78849.8 80350.6
165774 74361.8 72773.8
110293 101877 122650
120774 93773.8 122978
119730 140391 191155
121774 131774 186574
101693 139903 157967
105774 139774 165962
94038.2 141983 143962
90349.8 142774 137774
111871 139346 175015
114214 127774 168774
120161 139259 191588
125774 136230 196774
103897 139833 162284
103762 146774 166774
103236 139854 160989
108322 132774 163774
116479 104133 137750
113106 111774 145774
122743 137865 193973
125774 144418 202774
117310 104581 139867
125774 102342 144774
118271 100267 132829
125774 97773.8 137182
119660 94674.6 121696
128774 87729.8 118774
114914 109239 143945
117590 112774 152774
123123 92035.4 120585
123522 88773.8 112774
113277 111586 145268
108774 118218 147774
123345 103606 144316
129582 105774 153774
[...]
CELL_DATA 1581
SCALARS radius float
LOOKUP_TABLE default
100
100
100
100
92.9635
92.9635
86.4222
86.4222
89.6332
89.6332
83.3262
83.3262
80.3411
80.3411
83.3262
83.3262
77.463
77.463
80.3411
80.3411
74.6879
74.6879
77.463
77.463
77.463
77.463
77.463
77.463
74.6879
74.6879
74.6879
74.6879
72.0123
72.0123
72.0123
72.0123
69.4326
69.4326
74.6879
74.6879
74.6879
74.6879
66.9452
66.9452
69.4326
69.4326
72.0123
72.0123
69.4326
69.4326
66.9452
66.9452
66.9452
66.9452
66.9452
66.9452
72.0123
72.0123
64.547
64.547
60.0051
60.0051
72.0123
72.0123
62.2346
62.2346
64.547
64.547
74.6879
74.6879
60.0051
60.0051
64.547
64.547
62.2346
62.2346
57.8555
57.8555
62.2346
62.2346
69.4326
69.4326
64.547
64.547
62.2346
62.2346
62.2346
62.2346
60.0051
60.0051
60.0051
60.0051
66.9452
66.9452
60.0051
60.0051
57.8555
57.8555
55.7829
55.7829
57.8555
57.8555
69.4326
69.4326
55.7829
55.7829
57.8555
57.8555
57.8555
57.8555
55.7829
55.7829
53.7845
53.7845
60.0051
60.0051
62.2346
62.2346
62.2346
62.2346
57.8555
57.8555
55.7829
55.7829
60.0051
60.0051
62.2346
62.2346
64.547
64.547
57.8555
57.8555
55.7829
55.7829
66.9452
66.9452
53.7845
53.7845
55.7829
55.7829
57.8555
57.8555
53.7845
53.7845
53.7845
53.7845
60.0051
60.0051
57.8555
57.8555
60.0051
60.0051
50
50
60.0051
60.0051
53.7845
53.7845
62.2346
62.2346
55.7829
55.7829
60.0051
60.0051
51.8578
51.8578
51.8578
51.8578
50
50
57.8555
57.8555
62.2346
62.2346
51.8578
51.8578
53.7845
53.7845
51.8578
51.8578
55.7829
55.7829
50
50
53.7845
53.7845
57.8555
57.8555
53.7845
53.7845
51.8578
51.8578
53.7845
53.7845
51.8578
51.8578
53.7845
53.7845
53.7845
53.7845
50
50
48.2088
48.2088
64.547
64.547
46.4818
46.4818
55.7829
55.7829
55.7829
55.7829
50
50
46.4818
46.4818
48.2088
48.2088
51.8578
51.8578
51.8578
51.8578
48.2088
48.2088
46.4818
46.4818
53.7845
53.7845
53.7845
53.7845
55.7829
55.7829
48.2088
48.2088
48.2088
48.2088
50
50
51.8578
51.8578
46.4818
46.4818
50
50
53.7845
53.7845
51.8578
51.8578
50
50
60.0051
60.0051
43.2111
43.2111
48.2088
48.2088
50
50
50
50
50
50
48.2088
48.2088
48.2088
48.2088
50
50
50
50
44.8166
44.8166
46.4818
46.4818
53.7845
53.7845
57.8555
57.8555
44.8166
44.8166
57.8555
57.8555
41.6631
41.6631
43.2111
43.2111
50
50
40.1706
40.1706
48.2088
48.2088
51.8578
51.8578
44.8166
44.8166
46.4818
46.4818
48.2088
48.2088
46.4818
46.4818
48.2088
48.2088
48.2088
48.2088
44.8166
44.8166
41.6631
41.6631
48.2088
48.2088
46.4818
46.4818
46.4818
46.4818
55.7829
55.7829
44.8166
44.8166
46.4818
46.4818
55.7829
55.7829
46.4818
46.4818
50
50
44.8166
44.8166
48.2088
48.2088
40.1706
40.1706
50
50
46.4818
46.4818
44.8166
44.8166
44.8166
44.8166
38.7315
38.7315
44.8166
44.8166
46.4818
46.4818
43.2111
43.2111
46.4818
46.4818
44.8166
44.8166
44.8166
44.8166
43.2111
43.2111
43.2111
43.2111
53.7845
53.7845
43.2111
43.2111
48.2088
48.2088
43.2111
43.2111
46.4818
46.4818
37.344
37.344
46.4818
46.4818
46.4818
46.4818
43.2111
43.2111
36.0062
36.0062
51.8578
51.8578
44.8166
44.8166
41.6631
41.6631
41.6631
41.6631
41.6631
41.6631
40.1706
40.1706
43.2111
43.2111
43.2111
43.2111
41.6631
41.6631
43.2111
43.2111
38.7315
38.7315
50
50
34.7163
34.7163
44.8166
44.8166
40.1706
40.1706
41.6631
41.6631
38.7315
38.7315
41.6631
41.6631
40.1706
40.1706
38.7315
38.7315
40.1706
40.1706
33.4726
33.4726
37.344
37.344
34.7163
34.7163
38.7315
38.7315
36.0062
36.0062
38.7315
38.7315
38.7315
38.7315
37.344
37.344
33.4726
33.4726
34.7163
34.7163
32.2735
32.2735
36.0062
36.0062
31.1173
31.1173
32.2735
32.2735
32.2735
32.2735
31.1173
31.1173
31.1173
31.1173
30.0026
30.0026
30.0026
30.0026
30.0026
30.0026
37.344
37.344
28.9278
28.9278
28.9278
28.9278
28.9278
28.9278
33.4726
33.4726
27.8914
27.8914
48.2088
48.2088
27.8914
27.8914
27.8914
27.8914
37.344
37.344
26.8923
26.8923
26.8923
26.8923
31.1173
31.1173
34.7163
34.7163
33.4726
33.4726
26.8923
26.8923
96.4176
96.4176
92.9635
92.9635
89.6332
89.6332
83.3262
83.3262
86.4222
86.4222
83.3262
83.3262
80.3411
80.3411
77.463
77.463
80.3411
80.3411
72.0123
72.0123
74.6879
74.6879
72.0123
72.0123
69.4326
69.4326
74.6879
74.6879
80.3411
80.3411
69.4326
69.4326
66.9452
66.9452
72.0123
72.0123
69.4326
69.4326
66.9452
66.9452
72.0123
72.0123
69.4326
69.4326
69.4326
69.4326
74.6879
74.6879
66.9452
66.9452
64.547
64.547
72.0123
72.0123
69.4326
69.4326
72.0123
72.0123
66.9452
66.9452
64.547
64.547
69.4326
69.4326
62.2346
62.2346
64.547
64.547
69.4326
69.4326
69.4326
69.4326
66.9452
66.9452
64.547
64.547
66.9452
66.9452
66.9452
66.9452
66.9452
66.9452
66.9452
66.9452
64.547
64.547
66.9452
66.9452
66.9452
66.9452
69.4326
69.4326
64.547
64.547
64.547
64.547
64.547
64.547
62.2346
62.2346
66.9452
66.9452
62.2346
62.2346
69.4326
69.4326
60.0051
60.0051
66.9452
66.9452
60.0051
60.0051
64.547
64.547
60.0051
60.0051
57.8555
57.8555
60.0051
60.0051
60.0051
60.0051
57.8555
57.8555
60.0051
60.0051
60.0051
60.0051
62.2346
62.2346
57.8555
57.8555
55.7829
55.7829
60.0051
60.0051
55.7829
55.7829
57.8555
57.8555
57.8555
57.8555
55.7829
55.7829
55.7829
55.7829
53.7845
53.7845
64.547
64.547
55.7829
55.7829
53.7845
53.7845
55.7829
55.7829
53.7845
53.7845
57.8555
57.8555
57.8555
57.8555
53.7845
53.7845
57.8555
57.8555
60.0051
60.0051
55.7829
55.7829
51.8578
51.8578
51.8578
51.8578
64.547
64.547
60.0051
60.0051
53.7845
53.7845
50
50
51.8578
51.8578
55.7829
55.7829
51.8578
51.8578
57.8555
57.8555
48.2088
48.2088
51.8578
51.8578
51.8578
51.8578
51.8578
51.8578
50
50
50
50
53.7845
53.7845
53.7845
53.7845
62.2346
62.2346
48.2088
48.2088
66.9452
66.9452
51.8578
51.8578
51.8578
51.8578
55.7829
55.7829
51.8578
51.8578
55.7829
55.7829
50
50
57.8555
57.8555
51.8578
51.8578
53.7845
53.7845
53.7845
53.7845
51.8578
51.8578
50
50
50
50
50
50
57.8555
57.8555
51.8578
51.8578
57.8555
57.8555
48.2088
48.2088
53.7845
53.7845
50
50
48.2088
48.2088
46.4818
46.4818
51.8578
51.8578
50
50
53.7845
53.7845
44.8166
44.8166
48.2088
48.2088
50
50
48.2088
48.2088
51.8578
51.8578
46.4818
46.4818
48.2088
48.2088
53.7845
53.7845
50
50
51.8578
51.8578
55.7829
55.7829
44.8166
44.8166
48.2088
48.2088
48.2088
48.2088
50
50
46.4818
46.4818
44.8166
44.8166
62.2346
62.2346
53.7845
53.7845
48.2088
48.2088
55.7829
55.7829
51.8578
51.8578
46.4818
46.4818
46.4818
46.4818
46.4818
46.4818
50
50
46.4818
46.4818
46.4818
46.4818
51.8578
51.8578
41.6631
41.6631
46.4818
46.4818
46.4818
46.4818
51.8578
51.8578
51.8578
51.8578
51.8578
51.8578
44.8166
44.8166
44.8166
44.8166
48.2088
48.2088
43.2111
43.2111
44.8166
44.8166
60.0051
60.0051
46.4818
46.4818
50
50
44.8166
44.8166
43.2111
43.2111
43.2111
43.2111
53.7845
53.7845
40.1706
40.1706
43.2111
43.2111
48.2088
48.2088
44.8166
44.8166
46.4818
46.4818
48.2088
48.2088
41.6631
41.6631
46.4818
46.4818
57.8555
57.8555
38.7315
38.7315
43.2111
43.2111
51.8578
51.8578
40.1706
40.1706
41.6631
41.6631
44.8166
44.8166
46.4818
46.4818
44.8166
44.8166
41.6631
41.6631
50
50
38.7315
38.7315
41.6631
41.6631
55.7829
55.7829
43.2111
43.2111
48.2088
48.2088
48.2088
48.2088
41.6631
41.6631
43.2111
43.2111
40.1706
40.1706
40.1706
40.1706
43.2111
43.2111
53.7845
53.7845
44.8166
44.8166
41.6631
41.6631
41.6631
41.6631
51.8578
51.8578
41.6631
41.6631
46.4818
46.4818
38.7315
38.7315
44.8166
44.8166
37.344
37.344
41.6631
41.6631
41.6631
41.6631
40.1706
40.1706
43.2111
43.2111
38.7315
38.7315
44.8166
44.8166
40.1706
40.1706
40.1706
40.1706
50
50
40.1706
40.1706
44.8166
44.8166
41.6631
41.6631
44.8166
44.8166
40.1706
40.1706
37.344
37.344
50
50
41.6631
41.6631
48.2088
48.2088
46.4818
46.4818
46.4818
46.4818
37.344
37.344
40.1706
40.1706
40.1706
40.1706
32.2735
32.2735
37.344
37.344
34.7163
34.7163
48.2088
48.2088
46.4818
46.4818
38.7315
38.7315
44.8166
44.8166
37.344
37.344
36.0062
36.0062
43.2111
43.2111
34.7163
34.7163
36.0062
36.0062
31.1173
31.1173
33.4726
33.4726
37.344
37.344
44.8166
44.8166
28.9278
28.9278
30.0026
30.0026
40.1706
40.1706
27.8914
27.8914
38.7315
38.7315
26.8923
26.8923
28.9278
28.9278
26.8923
26.8923
25.9289
25.9289
27.8914
27.8914
25.9289
25.9289
36.0062
36.0062
26.8923
26.8923
25.9289
25.9289
33.4726
33.4726
30.0026
30.0026
25.9289
25.9289
32.2735
32.2735
31.1173
31.1173
37.344
37.344
89.6332
89.6332
86.4222
86.4222
83.3262
83.3262
77.463
77.463
80.3411
80.3411
80.3411
80.3411
77.463
77.463
77.463
77.463
74.6879
74.6879
72.0123
72.0123
72.0123
72.0123
72.0123
72.0123
74.6879
74.6879
72.0123
72.0123
69.4326
69.4326
77.463
77.463
64.547
64.547
72.0123
72.0123
66.9452
66.9452
69.4326
69.4326
66.9452
66.9452
66.9452
66.9452
66.9452
66.9452
72.0123
72.0123
64.547
64.547
62.2346
62.2346
69.4326
69.4326
64.547
64.547
69.4326
69.4326
69.4326
69.4326
66.9452
66.9452
72.0123
72.0123
60.0051
60.0051
64.547
64.547
62.2346
62.2346
62.2346
62.2346
62.2346
62.2346
62.2346
62.2346
64.547
64.547
64.547
64.547
64.547
64.547
62.2346
62.2346
62.2346
62.2346
60.0051
60.0051
64.547
64.547
57.8555
57.8555
64.547
64.547
62.2346
62.2346
62.2346
62.2346
64.547
64.547
57.8555
57.8555
57.8555
57.8555
66.9452
66.9452
64.547
64.547
64.547
64.547
55.7829
55.7829
60.0051
60.0051
62.2346
62.2346
57.8555
57.8555
64.547
64.547
64.547
64.547
64.547
64.547
55.7829
55.7829
69.4326
69.4326
55.7829
55.7829
64.547
64.547
57.8555
57.8555
62.2346
62.2346
55.7829
55.7829
57.8555
57.8555
57.8555
57.8555
53.7845
53.7845
53.7845
53.7845
50
50
53.7845
53.7845
55.7829
55.7829
55.7829
55.7829
55.7829
55.7829
57.8555
57.8555
53.7845
53.7845
51.8578
51.8578
53.7845
53.7845
55.7829
55.7829
69.4326
69.4326
51.8578
51.8578
57.8555
57.8555
51.8578
51.8578
48.2088
48.2088
50
50
60.0051
60.0051
55.7829
55.7829
60.0051
60.0051
46.4818
46.4818
55.7829
55.7829
55.7829
55.7829
50
50
50
50
57.8555
57.8555
62.2346
62.2346
48.2088
48.2088
53.7845
53.7845
57.8555
57.8555
48.2088
48.2088
57.8555
57.8555
46.4818
46.4818
50
50
55.7829
55.7829
55.7829
55.7829
55.7829
55.7829
53.7845
53.7845
60.0051
60.0051
50
50
51.8578
51.8578
50
50
46.4818
46.4818
46.4818
46.4818
60.0051
60.0051
50
50
60.0051
60.0051
48.2088
48.2088
48.2088
48.2088
48.2088
48.2088
55.7829
55.7829
57.8555
57.8555
50
50
44.8166
44.8166
51.8578
51.8578
100
96.4176
96.4176
92.9635
92.9635
86.4222
86.4222
83.3262
83.3262
89.6332
89.6332
80.3411
80.3411
77.463
77.463
86.4222
86.4222
74.6879
74.6879
83.3262
83.3262
72.0123
72.0123
80.3411
80.3411
77.463
77.463
77.463
77.463
74.6879
74.6879
69.4326
69.4326
74.6879
74.6879
72.0123
72.0123
72.0123
72.0123
66.9452
66.9452
72.0123
72.0123
69.4326
69.4326
69.4326
69.4326
64.547
64.547
66.9452
66.9452
62.2346
62.2346
66.9452
66.9452
66.9452
66.9452
60.0051
60.0051
64.547
64.547
64.547
64.547
62.2346
62.2346
64.547
64.547
62.2346
62.2346
72.0123
72.0123
62.2346
62.2346
57.8555
57.8555
69.4326
69.4326
62.2346
62.2346
60.0051
60.0051
62.2346
62.2346
57.8555
57.8555
60.0051
60.0051
66.9452
66.9452
55.7829
55.7829
60.0051
60.0051
57.8555
57.8555
57.8555
57.8555
55.7829
55.7829
55.7829
55.7829
60.0051
60.0051
55.7829
55.7829
53.7845
53.7845
64.547
64.547
53.7845
53.7845
57.8555
57.8555
51.8578
51.8578
50
50
55.7829
55.7829
53.7845
53.7845
53.7845
53.7845
51.8578
51.8578
57.8555
57.8555
51.8578
51.8578
51.8578
51.8578
50
50
48.2088
48.2088
50
50
50
50
48.2088
48.2088
46.4818
46.4818
46.4818
46.4818
48.2088
48.2088
46.4818
46.4818
48.2088
48.2088
46.4818
46.4818
44.8166
44.8166
46.4818
46.4818
48.2088
48.2088
44.8166
44.8166
43.2111
43.2111
46.4818
46.4818
44.8166
44.8166
43.2111
43.2111
44.8166
44.8166
44.8166
44.8166
46.4818
46.4818
46.4818
46.4818
44.8166
44.8166
41.6631
41.6631
41.6631
41.6631
43.2111
43.2111
40.1706
40.1706
43.2111
43.2111
40.1706
40.1706
41.6631
41.6631
38.7315
38.7315
41.6631
41.6631
40.1706
40.1706
40.1706
40.1706
37.344
37.344
40.1706
40.1706
38.7315
38.7315
38.7315
38.7315
43.2111
43.2111
37.344
37.344
43.2111
43.2111
38.7315
38.7315
36.0062
36.0062
34.7163
34.7163
33.4726
33.4726
34.7163
34.7163
41.6631
41.6631
41.6631
41.6631
40.1706
40.1706
37.344
37.344
32.2735
32.2735
36.0062
36.0062
31.1173
31.1173
40.1706
40.1706
34.7163
34.7163
33.4726
33.4726
38.7315
38.7315
37.344
37.344
30.0026
30.0026
30.0026
30.0026
32.2735
32.2735
31.1173
31.1173
31.1173
31.1173
28.9278
28.9278
33.4726
33.4726
27.8914
27.8914
28.9278
28.9278
30.0026
30.0026
26.8923
26.8923
27.8914
27.8914
25.9289
25.9289
26.8923
26.8923
32.2735
32.2735
