# vtk DataFile Version 3.0
Tree
ASCII
DATASET POLYDATA
POINTS 1582 float
162774 225274 273.8
162774 225274 10273.8
141774 225774 23773.8
137774 213262 31773.8
139214 218071 31273.8
135774 209186 52773.8
136806 211851 46323.8
151774 204002 58773.8
137528 213717 41809
113514 200774 48773.8
135460 209238 51864.2
129774 199846 69773.8
131480 202663 64401
112774 194090 66773.8
144777 206531 55940.2
147774 197954 76773.8
146875 200527 70523.8
165774 187774 74089.8
147504 198726 74898.6
134654 195774 86773.8
114840 194561 65454.6
98773.8 185974 64773.8
113393 194231 66378.2
108774 188002 85773.8
161550 189117 71962.6
172050 172774 65773.8
164507 188177 73451.8
173246 181774 95773.8
100390 185795 64657
90773.8 177974 63773.8
134879 195879 86002.2
120774 192774 97589.8
134721 195805 86542.2
140774 195998 101774
110529 190369 78403.4
95569.8 180774 80773.8
169767 174527 67305
175998 153774 64773.8
169925 184207 87291.4
180058 166774 88773.8
171365 173300 66233
168774 167954 52773.8
173013 181365 94345
179886 172774 106774
122208 193887 97013.4
109774 193202 108774
173864 158677 64161.8
172774 148774 55521.8
94377.4 180115 66044.2
81485.8 164774 76773.8
138958 195940 97204.2
127774 195998 112774
175358 155245 64590.2
181774 144774 76345.8
178026 173821 102424
183782 158774 106774
86038.2 170789 74698.6
81773.8 169386 88773.8
84167.4 171303 84064.2
85773.8 178774 98365.8
85291.8 176533 94075.4
96773.8 185786 96773.8
115820 193997 105801
114774 196774 123658
132919 195971 105612
142774 195998 124774
110210 193032 107873
97773.8 190002 109774
147693 198185 76211.4
151774 194014 88773.8
173176 181651 95345
162794 191774 108774
84308.2 168503 75487
81553.8 151774 60773.8
173101 151745 58113.8
180002 123774 61773.8
180343 144765 73823.8
183998 132774 80773.8
182055 163288 105469
183978 153774 95773.8
183264 160128 106382
183998 148774 120774
175790 134543 55379.8
176054 124774 49773.8
143747 195155 121044
153774 194014 132774
82491.8 169961 87361
75773.8 155774 87653.8
79082.6 160449 86004.6
78773.8 145590 76773.8
82409.4 154471 65446.2
82353.8 138774 65773.8
183777 152180 116456
183998 158774 131774
183461 154663 98391.4
183998 141774 95773.8
143066 195745 123655
139774 196022 141774
81989.4 169558 88349.8
77545.8 155774 104774
183868 148963 118787
183998 135774 124774
82819.4 146919 64347
85477.8 139774 56773.8
114216 196195 121373
108774 197998 141774
85629.4 178101 97078.6
79773.8 172774 110890
76766.6 157176 87159
77533.8 145774 94773.8
183897 155741 124728
183998 145774 136774
112148 196880 129125
124890 199774 140774
82467.4 175225 104537
85773.8 183118 118774
175869 131612 53697.8
185246 130774 37773.8
149964 194447 128317
164774 190062 124774
77303.4 149195 92489.4
79545.8 136774 87773.8
179328 173088 105469
177234 177774 120774
142227 195895 139336
144774 195886 153774
77464.6 146800 94088.6
80365.8 140774 109774
183938 141841 122020
183998 129774 112774
109858 197385 139899
110010 195774 152774
183980 137594 123947
179782 128774 140774
143399 195891 145977
133774 198014 153774
112769 196675 126799
97773.8 192402 135774
181250 132964 136285
179774 136654 150774
156776 192430 126687
165774 189994 137774
183967 148764 133160
182058 152774 150774
178953 174124 113248
181886 168774 122774
84680.2 141917 59045.8
87737.8 123774 57773.8
183993 136320 124526
180550 123774 125774
84896.6 179607 115628
87773.8 177774 131898
180340 130366 139068
176546 119774 135774
79495.4 142582 105068
80773.8 150386 117774
180217 135547 146427
173178 126774 155774
109071 194953 148077
103774 184966 158774
79252.2 138964 89607
81773.8 128466 91773.8
136661 197377 151435
137082 197774 166774
86450.2 178617 124414
84773.8 166774 129890
81017.4 131615 91123.8
83657.8 124774 82773.8
110198 194935 151947
114774 192774 163978
83918.6 125271 83033.8
88361.8 116774 71773.8
143047 195892 143985
154774 192774 147954
87971 117973 71846.6
90773.8 113774 62381.8
180599 124143 125194
177774 114338 124774
80288.2 147420 112946
84353.8 141774 122774
176953 177849 120003
173774 183258 128774
90157 115045 63312.2
91773.8 114754 50773.8
135598 197883 160215
127774 199774 167042
181939 152931 149907
179998 156774 162774
87870.6 177369 131085
91773.8 172774 144806
178763 116988 123801
177774 108754 116774
80647 140576 108354
85545.8 132774 116774
137381 197287 164794
143774 193962 172774
81547 129411 91578.6
88773.8 116774 93953.8
104784 185955 156062
100774 172774 160030
177684 122951 136762
170774 115774 145274
85238.6 140417 57455.4
87545.8 138774 47773.8
183674 158729 129304
181998 167774 135774
173902 129058 154930
164774 126170 167774
88244.6 117133 71795.4
93625.8 106774 71773.8
85887.8 167311 128787
86357.8 151774 133774
174505 119650 140677
169914 108774 136774
90588.6 114155 62661
94773.8 105574 58773.8
113678 192313 162241
115774 185318 174774
179440 136526 150404
175774 139774 163970
91107.8 175299 140699
96773.8 179322 149774
177250 109402 117903
174774 101658 112774
81705.8 128749 91715.4
86773.8 123522 104774
133937 197916 152814
122774 199998 156774
178071 115133 124482
171774 104674 126774
86664.2 120307 91837.4
91773.8 110422 84773.8
91573.8 173531 143574
90773.8 160774 143970
169879 126698 159232
162774 117774 160890
84675 134880 115786
88773.8 132774 125954
114977 187976 170011
108774 175774 171958
164905 120451 160393
158774 120214 167774
85904.6 134248 118836
91453.8 124774 120774
174727 181635 126143
176774 179774 141154
165287 126788 167155
160774 127774 175326
179592 156637 161079
175774 161774 175102
102488 174472 160368
102314 163774 165774
170801 116432 144943
163774 113002 151774
178446 158178 165286
173930 148774 174774
111627 181387 171063
114774 174774 180030
170749 112891 139369
161774 104774 143322
89014.6 115760 88588.2
95773.8 106306 94773.8
110127 177067 172247
109674 167774 176774
141445 194819 171941
143122 191774 186774
166665 126761 164778
168038 134774 172774
86525.4 123429 101973
94773.8 112774 109954
145303 195172 151567
152774 190774 161958
182501 165061 133833
181386 167774 150774
92654.2 110773 90499
98113.8 103774 86773.8
175285 181265 136267
171258 185774 143774
174589 102985 114709
167266 91773.8 113774
94194.2 113431 107708
99773.8 105990 108774
172669 106089 124865
167774 97773.8 122574
162354 128409 173953
160774 134774 185946
93173.4 108002 70939.8
100774 95569.8 65773.8
152448 193223 147977
160774 189966 155774
174593 151453 173612
169954 149774 184774
88749.8 132450 124725
95773.8 126774 134970
174719 102056 113354
177774 101774 102006
175443 160895 174216
170774 163774 185962
102779 164309 164604
103774 153458 167774
168894 94100.6 112931
164774 86773.8 105950
99326.2 97490.6 65053.8
102118 91773.8 58773.8
176124 101926 108134
172094 92773.8 100774
171988 164026 181991
167774 172774 186966
113984 174930 178769
115550 167774 185774
171002 149241 181007
165842 141774 185774
96978.6 105635 89075.8
106774 95573.8 91773.8
109670 168883 175439
108774 157774 175970
176098 180135 140819
176518 177774 153774
98967.4 107477 109186
104774 102262 113774
143075 194219 172524
152974 187774 172774
170267 150300 183828
167774 155774 193890
94599.8 112971 109280
101130 109774 121774
172042 105098 126201
164042 100774 132774
103835 98592.2 90964.2
108298 92773.8 83773.8
176392 178482 149887
169886 184774 156774
167835 99039 123386
158774 90773.8 123958
100735 95738.2 65735.8
105774 89773.8 68125.8
177144 101267 102858
177402 97773.8 92773.8
102567 104244 112031
107774 96773.8 107110
93585.8 129601 132757
97705.8 132774 144774
166026 88399.8 106410
165774 84257.8 95773.8
90609.8 126632 121091
96125.8 119774 126774
168016 170692 186576
161378 174774 193774
104644 90881.4 66680.2
110302 82773.8 63773.8
165149 87261.8 106088
155958 80773.8 100774
100437 109797 118871
108774 103774 125134
109261 159233 176079
110526 146774 177774
167847 172149 186849
160774 179774 184974
114737 168599 183462
113658 155774 186774
94274.6 106329 58617.8
97773.8 98465.8 53773.8
176059 178227 153161
173774 178022 165774
176861 97457 94376.6
174038 88773.8 84773.8
97296.2 133079 144130
99773.8 136582 152774
161423 178309 185172
151774 184014 182774
97712.6 99108.6 54203.8
101554 91773.8 49773.8
164600 84607.8 97497.4
161294 80773.8 89773.8
95942.2 120913 126635
101774 116006 132774
162550 82230.6 92708.6
167890 82773.8 84773.8
95382.2 133080 139749
95021.8 143774 147774
161966 173952 192426
152774 176774 198026
110071 84123 64698.6
119566 76773.8 64773.8
110919 149018 178084
115774 138774 183258
107223 105400 124683
113774 103774 133990
110644 147447 177867
111034 137774 173774
114333 80169.4 63755.4
116774 74257.8 57773.8
114665 158677 186888
118774 151774 193978
109712 104782 128219
116774 98369.8 127774
158806 190281 155209
162774 185934 166774
100024 117478 130932
102774 119774 139378
162904 185880 164848
167774 180774 173114
100101 136075 152304
103774 138774 160974
175675 161510 174836
172774 171774 175326
99871.8 136430 152633
99541.8 146774 157774
175747 91673 86734.6
179190 87773.8 74773.8
117541 153845 191851
117774 143774 191062
166992 82174.6 85516.2
171774 79541.8 74773.8
118271 145373 191400
121774 135774 191958
114655 100293 127907
116186 94773.8 117774
115620 139812 181795
120774 130774 183946
165659 82191.4 87673.8
160774 73585.8 73773.8
111676 138438 173963
113774 129090 169774
112447 104767 133034
116774 107774 144886
118813 151850 193705
123546 144774 199774
116138 98947 127814
124490 91773.8 123774
170203 79409.4 76834.2
169774 73517.8 68773.8
87201.4 152624 133137
89773.8 141494 135774
115201 105160 137485
123774 101774 141970
113273 104885 134369
110774 110774 139974
119228 133485 183301
120514 125774 176774
102672 137964 158373
108238 131774 162774
121467 93829 123928
123774 88521.8 114774
90965.8 161316 143318
90773.8 151774 141982
116349 107908 144069
116774 113774 153322
116511 110137 147585
109994 117774 148774
123583 92390.2 123820
133590 86773.8 118774
121753 103239 141659
130774 103774 150966
123168 102213 141877
127774 95033.8 133774
124114 89290.2 116405
130654 83773.8 108774
128167 104723 149963
131774 107774 158022
[...]
CELL_DATA 1581
SCALARS radius float
LOOKUP_TABLE default
100
100
100
100
92.9635
92.9635
86.4222
86.4222
89.6332
89.6332
83.3262
83.3262
80.3411
80.3411
83.3262
83.3262
80.3411
80.3411
77.463
77.463
77.463
77.463
74.6879
74.6879
77.463
77.463
74.6879
74.6879
74.6879
74.6879
74.6879
74.6879
72.0123
72.0123
69.4326
69.4326
72.0123
72.0123
72.0123
72.0123
69.4326
69.4326
69.4326
69.4326
72.0123
72.0123
69.4326
69.4326
72.0123
72.0123
69.4326
69.4326
66.9452
66.9452
66.9452
66.9452
69.4326
69.4326
66.9452
66.9452
64.547
64.547
69.4326
69.4326
64.547
64.547
66.9452
66.9452
74.6879
74.6879
66.9452
66.9452
66.9452
66.9452
66.9452
66.9452
60.0051
60.0051
64.547
64.547
62.2346
62.2346
64.547
64.547
62.2346
62.2346
64.547
64.547
62.2346
62.2346
60.0051
60.0051
60.0051
60.0051
62.2346
62.2346
60.0051
60.0051
62.2346
62.2346
57.8555
57.8555
57.8555
57.8555
66.9452
66.9452
62.2346
62.2346
60.0051
60.0051
57.8555
57.8555
62.2346
62.2346
60.0051
60.0051
62.2346
62.2346
55.7829
55.7829
57.8555
57.8555
64.547
64.547
57.8555
57.8555
55.7829
55.7829
55.7829
55.7829
60.0051
60.0051
53.7845
53.7845
53.7845
53.7845
64.547
64.547
50
50
51.8578
51.8578
55.7829
55.7829
60.0051
60.0051
55.7829
55.7829
51.8578
51.8578
57.8555
57.8555
48.2088
48.2088
51.8578
51.8578
46.4818
46.4818
57.8555
57.8555
55.7829
55.7829
51.8578
51.8578
55.7829
55.7829
53.7845
53.7845
55.7829
55.7829
51.8578
51.8578
55.7829
55.7829
50
50
50
50
50
50
57.8555
57.8555
48.2088
48.2088
50
50
53.7845
53.7845
53.7845
53.7845
48.2088
48.2088
50
50
46.4818
46.4818
51.8578
51.8578
53.7845
53.7845
46.4818
46.4818
53.7845
53.7845
55.7829
55.7829
44.8166
44.8166
48.2088
48.2088
50
50
44.8166
44.8166
46.4818
46.4818
53.7845
53.7845
44.8166
44.8166
51.8578
51.8578
46.4818
46.4818
50
50
48.2088
48.2088
46.4818
46.4818
48.2088
48.2088
50
50
43.2111
43.2111
48.2088
48.2088
51.8578
51.8578
40.1706
40.1706
46.4818
46.4818
55.7829
55.7829
40.1706
40.1706
50
50
51.8578
51.8578
43.2111
43.2111
48.2088
48.2088
50
50
43.2111
43.2111
46.4818
46.4818
48.2088
48.2088
43.2111
43.2111
41.6631
41.6631
48.2088
48.2088
51.8578
51.8578
53.7845
53.7845
44.8166
44.8166
51.8578
51.8578
44.8166
44.8166
46.4818
46.4818
44.8166
44.8166
38.7315
38.7315
46.4818
46.4818
53.7845
53.7845
44.8166
44.8166
44.8166
44.8166
43.2111
43.2111
44.8166
44.8166
48.2088
48.2088
41.6631
41.6631
44.8166
44.8166
41.6631
41.6631
43.2111
43.2111
48.2088
48.2088
43.2111
43.2111
43.2111
43.2111
46.4818
46.4818
50
50
43.2111
43.2111
41.6631
41.6631
41.6631
41.6631
44.8166
44.8166
43.2111
43.2111
41.6631
41.6631
48.2088
48.2088
43.2111
43.2111
43.2111
43.2111
40.1706
40.1706
41.6631
41.6631
43.2111
43.2111
40.1706
40.1706
44.8166
44.8166
41.6631
41.6631
41.6631
41.6631
38.7315
38.7315
43.2111
43.2111
44.8166
44.8166
40.1706
40.1706
46.4818
46.4818
44.8166
44.8166
46.4818
46.4818
38.7315
38.7315
40.1706
40.1706
38.7315
38.7315
41.6631
41.6631
38.7315
38.7315
43.2111
43.2111
37.344
37.344
41.6631
41.6631
40.1706
40.1706
38.7315
38.7315
41.6631
41.6631
41.6631
41.6631
40.1706
40.1706
37.344
37.344
43.2111
43.2111
40.1706
40.1706
51.8578
51.8578
41.6631
41.6631
50
50
38.7315
38.7315
43.2111
43.2111
37.344
37.344
37.344
37.344
40.1706
40.1706
34.7163
34.7163
38.7315
38.7315
38.7315
38.7315
38.7315
38.7315
36.0062
36.0062
38.7315
38.7315
38.7315
38.7315
38.7315
38.7315
37.344
37.344
33.4726
33.4726
44.8166
44.8166
36.0062
36.0062
37.344
37.344
37.344
37.344
37.344
37.344
36.0062
36.0062
48.2088
48.2088
34.7163
34.7163
33.4726
33.4726
34.7163
34.7163
34.7163
34.7163
33.4726
33.4726
34.7163
34.7163
33.4726
33.4726
38.7315
38.7315
32.2735
32.2735
33.4726
33.4726
33.4726
33.4726
37.344
37.344
46.4818
46.4818
32.2735
32.2735
32.2735
32.2735
32.2735
32.2735
37.344
37.344
31.1173
31.1173
31.1173
31.1173
30.0026
30.0026
33.4726
33.4726
32.2735
32.2735
96.4176
96.4176
89.6332
89.6332
92.9635
92.9635
86.4222
86.4222
83.3262
83.3262
83.3262
83.3262
83.3262
83.3262
80.3411
80.3411
80.3411
80.3411
77.463
77.463
80.3411
80.3411
80.3411
80.3411
72.0123
72.0123
77.463
77.463
69.4326
69.4326
74.6879
74.6879
74.6879
74.6879
69.4326
69.4326
64.547
64.547
69.4326
69.4326
64.547
64.547
62.2346
62.2346
60.0051
60.0051
72.0123
72.0123
66.9452
66.9452
72.0123
72.0123
74.6879
74.6879
72.0123
72.0123
69.4326
69.4326
62.2346
62.2346
60.0051
60.0051
66.9452
66.9452
72.0123
72.0123
69.4326
69.4326
69.4326
69.4326
64.547
64.547
69.4326
69.4326
66.9452
66.9452
69.4326
69.4326
66.9452
66.9452
66.9452
66.9452
69.4326
69.4326
66.9452
66.9452
64.547
64.547
66.9452
66.9452
64.547
64.547
66.9452
66.9452
62.2346
62.2346
66.9452
66.9452
64.547
64.547
62.2346
62.2346
64.547
64.547
62.2346
62.2346
62.2346
62.2346
60.0051
60.0051
62.2346
62.2346
57.8555
57.8555
60.0051
60.0051
57.8555
57.8555
57.8555
57.8555
57.8555
57.8555
60.0051
60.0051
53.7845
53.7845
64.547
64.547
57.8555
57.8555
64.547
64.547
60.0051
60.0051
64.547
64.547
55.7829
55.7829
62.2346
62.2346
60.0051
60.0051
60.0051
60.0051
51.8578
51.8578
66.9452
66.9452
60.0051
60.0051
62.2346
62.2346
57.8555
57.8555
64.547
64.547
60.0051
60.0051
57.8555
57.8555
60.0051
60.0051
60.0051
60.0051
60.0051
60.0051
62.2346
62.2346
57.8555
57.8555
62.2346
62.2346
62.2346
62.2346
55.7829
55.7829
57.8555
57.8555
60.0051
60.0051
60.0051
60.0051
55.7829
55.7829
60.0051
60.0051
60.0051
60.0051
57.8555
57.8555
55.7829
55.7829
53.7845
53.7845
57.8555
57.8555
62.2346
62.2346
53.7845
53.7845
57.8555
57.8555
55.7829
55.7829
55.7829
55.7829
55.7829
55.7829
53.7845
53.7845
57.8555
57.8555
53.7845
53.7845
55.7829
55.7829
53.7845
53.7845
53.7845
53.7845
55.7829
55.7829
51.8578
51.8578
60.0051
60.0051
53.7845
53.7845
48.2088
48.2088
53.7845
53.7845
51.8578
51.8578
50
50
51.8578
51.8578
50
50
53.7845
53.7845
51.8578
51.8578
46.4818
46.4818
57.8555
57.8555
51.8578
51.8578
57.8555
57.8555
44.8166
44.8166
51.8578
51.8578
43.2111
43.2111
48.2088
48.2088
46.4818
46.4818
53.7845
53.7845
55.7829
55.7829
46.4818
46.4818
50
50
43.2111
43.2111
51.8578
51.8578
55.7829
55.7829
41.6631
41.6631
50
50
53.7845
53.7845
48.2088
48.2088
44.8166
44.8166
55.7829
55.7829
51.8578
51.8578
51.8578
51.8578
51.8578
51.8578
50
50
50
50
50
50
44.8166
44.8166
48.2088
48.2088
48.2088
48.2088
48.2088
48.2088
44.8166
44.8166
46.4818
46.4818
46.4818
46.4818
41.6631
41.6631
43.2111
43.2111
48.2088
48.2088
44.8166
44.8166
48.2088
48.2088
46.4818
46.4818
44.8166
44.8166
46.4818
46.4818
38.7315
38.7315
44.8166
44.8166
53.7845
53.7845
40.1706
40.1706
50
50
41.6631
41.6631
41.6631
41.6631
50
50
43.2111
43.2111
46.4818
46.4818
44.8166
44.8166
41.6631
41.6631
46.4818
46.4818
50
50
38.7315
38.7315
44.8166
44.8166
46.4818
46.4818
41.6631
41.6631
40.1706
40.1706
48.2088
48.2088
40.1706
40.1706
40.1706
40.1706
43.2111
43.2111
51.8578
51.8578
46.4818
46.4818
46.4818
46.4818
40.1706
40.1706
43.2111
43.2111
48.2088
48.2088
37.344
37.344
51.8578
51.8578
41.6631
41.6631
41.6631
41.6631
40.1706
40.1706
41.6631
41.6631
50
50
37.344
37.344
46.4818
46.4818
50
50
38.7315
38.7315
40.1706
40.1706
41.6631
41.6631
41.6631
41.6631
44.8166
44.8166
40.1706
40.1706
48.2088
48.2088
40.1706
40.1706
43.2111
43.2111
38.7315
38.7315
43.2111
43.2111
40.1706
40.1706
41.6631
41.6631
40.1706
40.1706
40.1706
40.1706
41.6631
41.6631
38.7315
38.7315
40.1706
40.1706
37.344
37.344
38.7315
38.7315
44.8166
44.8166
40.1706
40.1706
37.344
37.344
40.1706
40.1706
37.344
37.344
40.1706
40.1706
36.0062
36.0062
40.1706
40.1706
43.2111
43.2111
43.2111
43.2111
36.0062
36.0062
38.7315
38.7315
48.2088
48.2088
36.0062
36.0062
36.0062
36.0062
44.8166
44.8166
37.344
37.344
41.6631
41.6631
34.7163
34.7163
46.4818
46.4818
34.7163
34.7163
32.2735
32.2735
37.344
37.344
33.4726
33.4726
48.2088
48.2088
44.8166
44.8166
36.0062
36.0062
43.2111
43.2111
46.4818
46.4818
37.344
37.344
36.0062
36.0062
34.7163
34.7163
36.0062
36.0062
41.6631
41.6631
46.4818
46.4818
36.0062
36.0062
34.7163
34.7163
31.1173
31.1173
32.2735
32.2735
31.1173
31.1173
32.2735
32.2735
40.1706
40.1706
31.1173
31.1173
32.2735
32.2735
30.0026
30.0026
36.0062
36.0062
34.7163
34.7163
31.1173
31.1173
43.2111
43.2111
48.2088
48.2088
33.4726
33.4726
30.0026
30.0026
32.2735
32.2735
31.1173
31.1173
34.7163
34.7163
89.6332
89.6332
86.4222
86.4222
80.3411
80.3411
86.4222
86.4222
80.3411
80.3411
77.463
77.463
74.6879
74.6879
77.463
77.463
77.463
77.463
69.4326
69.4326
77.463
77.463
72.0123
72.0123
69.4326
69.4326
66.9452
66.9452
66.9452
66.9452
69.4326
69.4326
69.4326
69.4326
66.9452
66.9452
64.547
64.547
72.0123
72.0123
64.547
64.547
64.547
64.547
62.2346
62.2346
72.0123
72.0123
57.8555
57.8555
66.9452
66.9452
62.2346
62.2346
69.4326
69.4326
66.9452
66.9452
66.9452
66.9452
64.547
64.547
66.9452
66.9452
62.2346
62.2346
64.547
64.547
66.9452
66.9452
64.547
64.547
66.9452
66.9452
64.547
64.547
64.547
64.547
64.547
64.547
64.547
64.547
62.2346
62.2346
62.2346
62.2346
62.2346
62.2346
64.547
64.547
51.8578
51.8578
62.2346
62.2346
64.547
64.547
62.2346
62.2346
60.0051
60.0051
60.0051
60.0051
60.0051
60.0051
57.8555
57.8555
64.547
64.547
55.7829
55.7829
64.547
64.547
64.547
64.547
53.7845
53.7845
62.2346
62.2346
62.2346
62.2346
60.0051
60.0051
60.0051
60.0051
51.8578
51.8578
60.0051
60.0051
62.2346
62.2346
55.7829
55.7829
53.7845
53.7845
57.8555
57.8555
51.8578
51.8578
53.7845
53.7845
50
50
60.0051
60.0051
57.8555
57.8555
57.8555
57.8555
57.8555
57.8555
60.0051
60.0051
55.7829
55.7829
57.8555
57.8555
62.2346
62.2346
55.7829
55.7829
53.7845
53.7845
62.2346
62.2346
60.0051
60.0051
60.0051
60.0051
55.7829
55.7829
53.7845
53.7845
51.8578
51.8578
55.7829
55.7829
55.7829
55.7829
55.7829
55.7829
55.7829
55.7829
51.8578
51.8578
55.7829
55.7829
50
50
55.7829
55.7829
51.8578
51.8578
51.8578
51.8578
53.7845
53.7845
53.7845
53.7845
53.7845
53.7845
53.7845
53.7845
53.7845
53.7845
51.8578
51.8578
51.8578
51.8578
53.7845
53.7845
48.2088
48.2088
53.7845
53.7845
55.7829
55.7829
44.8166
44.8166
60.0051
60.0051
50
50
50
50
50
50
53.7845
53.7845
53.7845
53.7845
43.2111
43.2111
44.8166
44.8166
43.2111
43.2111
51.8578
51.8578
57.8555
57.8555
50
50
53.7845
53.7845
50
50
53.7845
53.7845
41.6631
41.6631
48.2088
48.2088
48.2088
48.2088
100
96.4176
96.4176
92.9635
92.9635
86.4222
86.4222
83.3262
83.3262
80.3411
80.3411
89.6332
89.6332
80.3411
80.3411
77.463
77.463
74.6879
74.6879
74.6879
74.6879
72.0123
72.0123
72.0123
72.0123
72.0123
72.0123
69.4326
69.4326
66.9452
66.9452
69.4326
69.4326
66.9452
66.9452
64.547
64.547
64.547
64.547
64.547
64.547
66.9452
66.9452
62.2346
62.2346
62.2346
62.2346
64.547
64.547
62.2346
62.2346
60.0051
60.0051
60.0051
60.0051
62.2346
62.2346
69.4326
69.4326
57.8555
57.8555
55.7829
55.7829
53.7845
53.7845
62.2346
62.2346
60.0051
60.0051
55.7829
55.7829
57.8555
57.8555
55.7829
55.7829
51.8578
51.8578
51.8578
51.8578
50
50
62.2346
62.2346
60.0051
60.0051
53.7845
53.7845
50
50
48.2088
48.2088
48.2088
48.2088
48.2088
48.2088
57.8555
57.8555
57.8555
57.8555
46.4818
46.4818
44.8166
44.8166
51.8578
51.8578
55.7829
55.7829
60.0051
60.0051
48.2088
48.2088
46.4818
46.4818
46.4818
46.4818
46.4818
46.4818
50
50
53.7845
53.7845
51.8578
51.8578
43.2111
43.2111
44.8166
44.8166
41.6631
41.6631
43.2111
43.2111
50
50
48.2088
48.2088
44.8166
44.8166
43.2111
43.2111
41.6631
41.6631
40.1706
40.1706
38.7315
38.7315
50
50
46.4818
46.4818
48.2088
48.2088
46.4818
46.4818
40.1706
40.1706
41.6631
41.6631
40.1706
40.1706
37.344
37.344
36.0062
36.0062
36.0062
36.0062
38.7315
38.7315
44.8166
44.8166
34.7163
34.7163
38.7315
38.7315
44.8166
44.8166
43.2111
43.2111
38.7315
38.7315
43.2111
43.2111
33.4726
33.4726
37.344
37.344
37.344
37.344
34.7163
34.7163
36.0062
36.0062
33.4726
33.4726
32.2735
32.2735
36.0062
36.0062
41.6631
41.6631
31.1173
31.1173
32.2735
32.2735
40.1706
40.1706
38.7315
38.7315
36.0062
36.0062
34.7163
34.7163
36.0062
36.0062
38.7315
38.7315
33.4726
33.4726
37.344
37.344
34.7163
34.7163
37.344
37.344
32.2735
32.2735
33.4726
33.4726
34.7163
34.7163
36.0062
36.0062
31.1173
31.1173
32.2735
32.2735
31.1173
31.1173
31.1173
31.1173
37.344
37.344
36.0062
36.0062
30.0026
30.0026
30.0026
30.0026
28.9278
28.9278
27.8914
27.8914
28.9278
28.9278
34.7163
34.7163
26.8923
26.8923
33.4726
33.4726
27.8914
27.8914
26.8923
26.8923
26.8923
26.8923
25.9289
25.9289
32.2735
32.2735
25.9289
25.9289
31.1173
31.1173
25.9289
25.9289
25
25
25.9289
25.9289
