# vtk DataFile Version 3.0
Tree
ASCII
DATASET POLYDATA
POINTS 1582 float
162774 225274 273.8
162774 225274 10273.8
141774 225774 23773.8
139774 213262 31773.8
140214 218155 31273.8
136774 209782 52773.8
138356 213633 42883.8
118774 204774 47949.8
137249 210937 49807
151326 200774 65773.8
127054 207463 48483.4
117774 196774 67321.8
144850 205449 58429
135774 198022 75773.8
149988 201290 65443
157958 192774 81773.8
120558 199981 61670.2
102774 189998 60773.8
155567 195329 76874.6
169258 183774 75773.8
112377 195389 61257.8
104774 186102 78773.8
119837 198004 66290.6
120774 192046 83773.8
162960 189089 76280.2
171974 182774 93773.8
138785 199744 73750.6
139774 195998 94773.8
104595 190381 61923.4
91773.8 179258 67773.8
167369 185368 75925.8
173218 163774 62773.8
168549 185173 87126.2
177402 173774 86773.8
171619 182354 92567
178002 173774 101774
174389 176644 85637
178018 165774 77773.8
120381 193928 82273.4
119774 194002 106774
94115.4 180677 65634.2
83773.8 167942 63773.8
92476.2 179683 67131.8
86773.8 173978 85773.8
139457 197197 93086.6
139774 195998 112774
177285 166609 79197
179782 150774 72773.8
171033 165924 64182.6
172098 146774 52773.8
104359 187211 77929.8
96773.8 182102 90773.8
117983 193412 93858.6
104774 190054 103774
139679 196357 94267.4
157078 193774 104774
179058 151921 73989
180050 136774 69773.8
176602 174397 99111.4
183962 156774 105774
181165 163471 103242
183262 161774 119774
176416 169619 81129
182530 155774 89773.8
85974.2 169257 65116.2
79545.8 152774 69773.8
82503 160356 67631.4
77637.8 158774 80773.8
85943.8 175593 84336.2
79773.8 172798 98773.8
179503 139463 69371.8
178058 126774 58773.8
119010 194402 106087
117774 197998 126774
97841.8 183855 89220.2
89773.8 184774 104446
81624.6 173637 94442.6
75585.8 161774 97773.8
181085 157132 87299.8
183998 138774 88773.8
140388 196321 110118
144774 195998 131774
155897 192775 104212
167774 187994 111774
183066 142129 86062.2
183998 129774 80773.8
144288 195858 121902
154774 194006 127774
116111 197136 124329
110774 198002 135774
183665 132047 80226.2
183874 123774 72773.8
178493 128595 59085.4
177962 118774 47773.8
182027 151211 88291.8
183998 143774 96773.8
178334 125648 55691.8
177774 129774 43245.8
144628 195956 128812
131774 198002 136774
183151 145992 96346.6
183998 136774 119774
183769 140103 114989
183998 142774 130774
90832.2 183409 101781
81773.8 176794 114774
182629 161333 118201
183998 157774 137774
80709.4 154562 70252.6
78773.8 142258 79773.8
144730 195985 130885
145938 195774 147774
80128.6 150871 73109
83773.8 131662 65773.8
166275 187222 111034
175994 179774 117774
79180.2 144842 77774.2
77549.8 143774 96773.8
178073 120836 50149
185262 120774 37773.8
77397.4 165333 96774.6
79489.8 154774 112774
183929 141973 126038
180550 129774 135774
112075 197596 134830
109774 196774 151106
78563.8 143185 95573.8
79773.8 140754 108774
84491.4 178778 110876
87773.8 182774 124974
183683 142085 130179
182002 140774 143774
153763 193837 126608
167774 189226 130774
86263.8 180936 118489
93661.8 190774 120774
111164 197880 135491
100774 192026 140774
182030 139833 139575
177998 130774 147774
145575 195837 142707
131958 198774 151774
85732.2 180289 116205
84773.8 171774 127290
183929 137773 118338
180774 121774 123170
109835 195826 147645
105774 188418 157774
182653 157831 136832
182002 154774 152774
159087 192085 128191
162774 191774 142798
78895.8 143033 79173.8
81553.8 129774 88773.8
138222 197423 147603
138774 196774 163954
84627.4 132936 68487.8
89017.8 117774 65773.8
180101 130181 134277
176050 120774 138774
84029.8 132044 66587.8
88773.8 127590 52773.8
178818 134085 146612
173774 131774 159970
109792 196489 150067
115774 194774 163274
80262.2 155316 111991
82773.8 148774 121958
183072 161641 119302
180062 170774 126774
82020.2 150737 118968
83593.8 139774 118774
177613 123812 135860
174774 113582 131774
85949 174894 125454
90773.8 172774 141890
181494 124973 120830
179834 113774 115774
85489.8 172385 127261
85605.8 164774 133774
137306 197421 158766
129670 199774 167774
87840.6 122661 65043.8
91585.8 114774 53773.8
106305 188788 155459
101734 176774 160774
178244 131767 147425
169774 120226 152774
80047.4 140402 103378
85445.8 130774 110774
172214 124622 152162
166030 122774 161774
85597.8 165536 132015
85773.8 155542 133774
176901 133206 151688
178002 139774 157774
114065 194257 160898
115106 187774 171774
181376 155752 151312
179022 154774 165774
102419 191640 139083
94773.8 183958 140774
138774 196632 163378
143282 193774 175774
81945.4 131534 87161.8
89477.8 116774 95773.8
79895 153310 69917.4
85493.8 142774 53773.8
166476 188954 130497
175258 181774 133774
85945 123156 88840.2
89773.8 114266 85773.8
102639 180139 157962
96773.8 170774 153974
176307 119106 133981
168774 110310 141774
91477 116177 54580.2
95477.8 110774 43773.8
114794 189719 168511
109774 179774 171218
179434 115201 117419
173774 102366 117774
83826.2 133662 108555
87449.8 122774 104774
146459 195381 146740
150774 192774 155954
174527 114002 132266
169174 102774 129774
89259.8 115897 85621.8
93485.8 108774 78773.8
85603.4 165003 133246
91553.8 159774 145774
182551 160448 130863
181986 167774 140774
92883 108889 78802.6
95773.8 102774 72809.8
142630 194074 171295
149894 188774 174774
167599 124121 160183
161774 127774 174442
95001.8 104634 73222.2
97485.8 100774 60773.8
84959.8 131640 110108
91705.8 126774 126774
174219 103600 116569
170514 95773.8 113774
174839 133342 157921
171774 138578 170774
99513.8 188721 139726
98773.8 183774 149326
169505 111239 138720
162774 103574 139774
178371 154247 163946
174006 151774 175774
102381 177101 160405
103578 168774 166774
169648 120816 152559
162774 113454 152774
176712 153307 168441
174774 162774 175974
89405.4 117517 95352.2
95773.8 109774 106134
103219 171272 164863
99773.8 158774 161378
142930 193641 175388
142774 191906 186774
166501 123178 161297
157774 115774 163962
89456.2 116997 95647.4
96773.8 105574 94773.8
111280 182757 170406
114774 173774 181298
175784 107081 116824
175958 99773.8 104774
86073 126911 106211
89773.8 120774 112886
162671 191043 137962
171258 185774 144774
163492 128285 172492
161254 133774 183774
82744.2 145694 118879
89445.8 138774 130774
181861 156542 145810
181186 166774 153774
174577 151313 173208
169774 143774 179970
103760 168928 166499
106186 160774 171774
170991 97016.6 113689
166774 89557.8 107774
91225.8 128447 125574
95773.8 128578 136774
174030 151922 175523
171774 154774 184794
95739.8 107706 93889.8
103502 98773.8 86773.8
113131 175518 177457
111774 163774 181094
172451 153918 182013
169774 166774 188794
96144.6 102859 67495.8
103130 91773.8 65773.8
162794 190981 142148
163294 188774 155774
171215 146035 177941
167774 147578 187774
95135.8 111692 105758
100774 107774 117114
147733 190913 172457
156774 187774 168906
170657 96146.6 113748
161774 91129.8 121774
95582.6 110349 106021
102774 102258 107774
180456 166278 152423
178002 173774 155774
100552 102168 89477.8
106290 95773.8 94773.8
133837 198369 150523
123774 200002 146774
168039 91795.4 109548
171774 89773.8 96133.8
91561.8 127276 126414
94341.8 119774 122774
169583 105105 130821
161774 97773.8 132446
166820 89866.2 107701
161774 82329.8 99773.8
101635 93791 64365
105774 86309.8 58773.8
106500 161465 171624
110774 151594 178774
168423 148309 186436
165774 155774 197182
95802.2 128601 136381
99773.8 128774 144970
168951 164060 188630
163774 171774 195958
107883 155262 173789
107774 147774 173230
166155 168225 192587
161774 177418 188774
177933 172730 155453
172774 180774 159950
102862 99253.4 86816.6
107990 91773.8 78773.8
97443.8 100453 61468.6
99773.8 94465.8 52773.8
102713 102942 106933
110774 95453.8 106774
97311.4 128667 139645
95773.8 137578 145774
100543 107992 114840
109998 101774 122774
171605 91159.8 98629.4
177774 95773.8 88089.8
104892 105131 118490
106258 108774 129774
102681 92379 65351
113774 82773.8 69185.8
171691 90171.4 96295.8
171890 86773.8 86773.8
92965 128505 129681
99773.8 118774 133198
110462 152763 178498
115774 150774 189262
161876 83975 101214
152774 79545.8 94773.8
110446 85655.4 68035.4
113774 78513.8 60773.8
149195 189165 174741
152774 183774 182978
166788 89650.2 107752
155774 83541.8 111774
96235 134905 143935
100346 136774 153774
159145 82646.2 99281.8
160774 79773.8 88801.8
110680 151945 178691
115458 140774 182774
163678 170831 194903
155774 175938 198774
99112.6 136213 150822
97773.8 145774 155062
173367 179022 159831
167062 183774 167774
113642 145019 181222
112514 136774 175774
175467 160271 172147
173774 173970 171774
108689 103217 122472
116334 101774 133774
114180 151371 186033
117638 158774 192774
172520 87816.2 88224.6
176774 87665.8 78773.8
113463 83203.8 68493.4
121774 76993.8 67773.8
172079 87086.6 87209
170442 81773.8 79773.8
119281 78856.6 67989.8
121774 72241.8 60773.8
160663 79903 88861
161774 77773.8 80029.8
95912.2 136776 145222
91773.8 147498 143774
114041 102207 130383
112282 107774 137774
115801 151078 189015
121774 150774 199262
109605 102207 122683
119774 95005.8 123774
112335 140319 176884
107774 136774 166970
171761 83493.4 81193.4
175774 80773.8 71325.8
114913 142047 182308
121774 138774 193538
98282.6 142141 153451
103450 144774 162774
115295 141156 182634
120774 130774 183946
162034 77751.4 81118.2
165774 73505.8 70773.8
112660 137462 175500
114206 128774 169774
163088 174660 189918
165366 179774 178774
115926 102275 133472
121774 103774 143970
154062 188715 169971
159774 184006 174774
120698 140661 192095
125774 141774 201218
118200 95845.4 122360
125774 89773.8 119970
120019 103324 140821
116774 109774 147322
118820 133707 182483
120514 125774 176774
86194.6 156565 132931
87477.8 147774 132774
116211 101924 133683
125774 95773.8 133962
121247 103639 143025
128774 101546 145774
117532 109110 146923
115774 114774 153326
117001 109575 147202
108774 117574 146774
124289 90821 119468
129774 85545.8 111774
126516 102174 144949
129582 105774 153774
112034 107111 136058
107122 113774 139774
125328 90088.2 119819
136774 85773.8 120794
129497 86582.2 113851
138378 82773.8 111774
[...]
CELL_DATA 1581
SCALARS radius float
LOOKUP_TABLE default
100
100
100
100
96.4176
96.4176
92.9635
92.9635
89.6332
89.6332
89.6332
89.6332
86.4222
86.4222
83.3262
83.3262
86.4222
86.4222
80.3411
80.3411
83.3262
83.3262
83.3262
83.3262
77.463
77.463
80.3411
80.3411
80.3411
80.3411
72.0123
72.0123
74.6879
74.6879
72.0123
72.0123
72.0123
72.0123
80.3411
80.3411
77.463
77.463
74.6879
74.6879
77.463
77.463
66.9452
66.9452
66.9452
66.9452
77.463
77.463
77.463
77.463
74.6879
74.6879
62.2346
62.2346
69.4326
69.4326
66.9452
66.9452
69.4326
69.4326
74.6879
74.6879
72.0123
72.0123
69.4326
69.4326
57.8555
57.8555
74.6879
74.6879
74.6879
74.6879
66.9452
66.9452
66.9452
66.9452
74.6879
74.6879
66.9452
66.9452
62.2346
62.2346
72.0123
72.0123
72.0123
72.0123
60.0051
60.0051
51.8578
51.8578
64.547
64.547
50
50
69.4326
69.4326
62.2346
62.2346
60.0051
60.0051
72.0123
72.0123
64.547
64.547
69.4326
69.4326
66.9452
66.9452
66.9452
66.9452
62.2346
62.2346
64.547
64.547
48.2088
48.2088
64.547
64.547
57.8555
57.8555
69.4326
69.4326
60.0051
60.0051
69.4326
69.4326
55.7829
55.7829
69.4326
69.4326
64.547
64.547
66.9452
66.9452
53.7845
53.7845
64.547
64.547
66.9452
66.9452
57.8555
57.8555
66.9452
66.9452
60.0051
60.0051
64.547
64.547
62.2346
62.2346
62.2346
62.2346
60.0051
60.0051
55.7829
55.7829
57.8555
57.8555
51.8578
51.8578
64.547
64.547
60.0051
60.0051
62.2346
62.2346
57.8555
57.8555
53.7845
53.7845
62.2346
62.2346
55.7829
55.7829
60.0051
60.0051
60.0051
60.0051
55.7829
55.7829
64.547
64.547
50
50
57.8555
57.8555
48.2088
48.2088
55.7829
55.7829
50
50
62.2346
62.2346
55.7829
55.7829
60.0051
60.0051
57.8555
57.8555
60.0051
60.0051
66.9452
66.9452
60.0051
60.0051
57.8555
57.8555
62.2346
62.2346
51.8578
51.8578
51.8578
51.8578
60.0051
60.0051
53.7845
53.7845
55.7829
55.7829
62.2346
62.2346
50
50
53.7845
53.7845
53.7845
53.7845
62.2346
62.2346
51.8578
51.8578
55.7829
55.7829
46.4818
46.4818
50
50
53.7845
53.7845
50
50
48.2088
48.2088
57.8555
57.8555
50
50
53.7845
53.7845
60.0051
60.0051
46.4818
46.4818
51.8578
51.8578
55.7829
55.7829
57.8555
57.8555
51.8578
51.8578
43.2111
43.2111
53.7845
53.7845
55.7829
55.7829
51.8578
51.8578
53.7845
53.7845
60.0051
60.0051
40.1706
40.1706
55.7829
55.7829
57.8555
57.8555
50
50
55.7829
55.7829
48.2088
48.2088
51.8578
51.8578
48.2088
48.2088
50
50
51.8578
51.8578
46.4818
46.4818
48.2088
48.2088
57.8555
57.8555
48.2088
48.2088
53.7845
53.7845
53.7845
53.7845
46.4818
46.4818
51.8578
51.8578
53.7845
53.7845
48.2088
48.2088
60.0051
60.0051
46.4818
46.4818
50
50
46.4818
46.4818
44.8166
44.8166
46.4818
46.4818
53.7845
53.7845
46.4818
46.4818
46.4818
46.4818
44.8166
44.8166
51.8578
51.8578
43.2111
43.2111
50
50
46.4818
46.4818
46.4818
46.4818
50
50
43.2111
43.2111
51.8578
51.8578
44.8166
44.8166
50
50
44.8166
44.8166
43.2111
43.2111
50
50
50
50
41.6631
41.6631
43.2111
43.2111
51.8578
51.8578
43.2111
43.2111
41.6631
41.6631
40.1706
40.1706
48.2088
48.2088
41.6631
41.6631
40.1706
40.1706
46.4818
46.4818
46.4818
46.4818
50
50
48.2088
48.2088
44.8166
44.8166
41.6631
41.6631
41.6631
41.6631
40.1706
40.1706
40.1706
40.1706
38.7315
38.7315
40.1706
40.1706
46.4818
46.4818
43.2111
43.2111
46.4818
46.4818
44.8166
44.8166
38.7315
38.7315
44.8166
44.8166
38.7315
38.7315
43.2111
43.2111
36.0062
36.0062
43.2111
43.2111
41.6631
41.6631
44.8166
44.8166
51.8578
51.8578
43.2111
43.2111
43.2111
43.2111
43.2111
43.2111
41.6631
41.6631
53.7845
53.7845
43.2111
43.2111
41.6631
41.6631
41.6631
41.6631
40.1706
40.1706
40.1706
40.1706
40.1706
40.1706
44.8166
44.8166
38.7315
38.7315
38.7315
38.7315
51.8578
51.8578
38.7315
38.7315
37.344
37.344
37.344
37.344
38.7315
38.7315
38.7315
38.7315
37.344
37.344
40.1706
40.1706
36.0062
36.0062
36.0062
36.0062
37.344
37.344
40.1706
40.1706
38.7315
38.7315
37.344
37.344
89.6332
89.6332
86.4222
86.4222
92.9635
92.9635
83.3262
83.3262
86.4222
86.4222
89.6332
89.6332
83.3262
83.3262
83.3262
83.3262
80.3411
80.3411
86.4222
86.4222
83.3262
83.3262
80.3411
80.3411
77.463
77.463
80.3411
80.3411
83.3262
83.3262
74.6879
74.6879
80.3411
80.3411
74.6879
74.6879
72.0123
72.0123
80.3411
80.3411
77.463
77.463
77.463
77.463
69.4326
69.4326
77.463
77.463
77.463
77.463
74.6879
74.6879
69.4326
69.4326
80.3411
80.3411
77.463
77.463
74.6879
74.6879
69.4326
69.4326
64.547
64.547
72.0123
72.0123
72.0123
72.0123
74.6879
74.6879
72.0123
72.0123
64.547
64.547
62.2346
62.2346
69.4326
69.4326
66.9452
66.9452
64.547
64.547
69.4326
69.4326
72.0123
72.0123
72.0123
72.0123
62.2346
62.2346
60.0051
60.0051
69.4326
69.4326
66.9452
66.9452
74.6879
74.6879
72.0123
72.0123
72.0123
72.0123
64.547
64.547
72.0123
72.0123
72.0123
72.0123
69.4326
69.4326
64.547
64.547
69.4326
69.4326
66.9452
66.9452
74.6879
74.6879
69.4326
69.4326
64.547
64.547
72.0123
72.0123
66.9452
66.9452
74.6879
74.6879
66.9452
66.9452
53.7845
53.7845
62.2346
62.2346
62.2346
62.2346
64.547
64.547
64.547
64.547
69.4326
69.4326
72.0123
72.0123
64.547
64.547
64.547
64.547
60.0051
60.0051
69.4326
69.4326
62.2346
62.2346
62.2346
62.2346
57.8555
57.8555
66.9452
66.9452
62.2346
62.2346
57.8555
57.8555
62.2346
62.2346
62.2346
62.2346
55.7829
55.7829
64.547
64.547
60.0051
60.0051
62.2346
62.2346
62.2346
62.2346
64.547
64.547
60.0051
60.0051
55.7829
55.7829
60.0051
60.0051
66.9452
66.9452
60.0051
60.0051
46.4818
46.4818
62.2346
62.2346
53.7845
53.7845
44.8166
44.8166
62.2346
62.2346
57.8555
57.8555
57.8555
57.8555
64.547
64.547
64.547
64.547
64.547
64.547
60.0051
60.0051
62.2346
62.2346
53.7845
53.7845
60.0051
60.0051
51.8578
51.8578
62.2346
62.2346
62.2346
62.2346
62.2346
62.2346
53.7845
53.7845
60.0051
60.0051
53.7845
53.7845
62.2346
62.2346
51.8578
51.8578
60.0051
60.0051
51.8578
51.8578
62.2346
62.2346
57.8555
57.8555
57.8555
57.8555
53.7845
53.7845
51.8578
51.8578
55.7829
55.7829
57.8555
57.8555
51.8578
51.8578
60.0051
60.0051
50
50
53.7845
53.7845
57.8555
57.8555
57.8555
57.8555
60.0051
60.0051
60.0051
60.0051
55.7829
55.7829
53.7845
53.7845
57.8555
57.8555
57.8555
57.8555
50
50
60.0051
60.0051
50
50
53.7845
53.7845
50
50
44.8166
44.8166
55.7829
55.7829
44.8166
44.8166
62.2346
62.2346
64.547
64.547
53.7845
53.7845
55.7829
55.7829
44.8166
44.8166
51.8578
51.8578
60.0051
60.0051
51.8578
51.8578
55.7829
55.7829
44.8166
44.8166
50
50
57.8555
57.8555
48.2088
48.2088
55.7829
55.7829
55.7829
55.7829
43.2111
43.2111
53.7845
53.7845
53.7845
53.7845
44.8166
44.8166
51.8578
51.8578
60.0051
60.0051
41.6631
41.6631
51.8578
51.8578
53.7845
53.7845
43.2111
43.2111
46.4818
46.4818
55.7829
55.7829
57.8555
57.8555
38.7315
38.7315
48.2088
48.2088
55.7829
55.7829
41.6631
41.6631
53.7845
53.7845
57.8555
57.8555
40.1706
40.1706
48.2088
48.2088
55.7829
55.7829
38.7315
38.7315
50
50
53.7845
53.7845
41.6631
41.6631
48.2088
48.2088
50
50
50
50
51.8578
51.8578
43.2111
43.2111
50
50
43.2111
43.2111
48.2088
48.2088
53.7845
53.7845
37.344
37.344
44.8166
44.8166
57.8555
57.8555
44.8166
44.8166
44.8166
44.8166
41.6631
41.6631
46.4818
46.4818
53.7845
53.7845
48.2088
48.2088
44.8166
44.8166
50
50
48.2088
48.2088
43.2111
43.2111
48.2088
48.2088
41.6631
41.6631
46.4818
46.4818
40.1706
40.1706
48.2088
48.2088
44.8166
44.8166
48.2088
48.2088
41.6631
41.6631
40.1706
40.1706
48.2088
48.2088
38.7315
38.7315
46.4818
46.4818
43.2111
43.2111
44.8166
44.8166
37.344
37.344
48.2088
48.2088
46.4818
46.4818
46.4818
46.4818
43.2111
43.2111
37.344
37.344
50
50
48.2088
48.2088
43.2111
43.2111
44.8166
44.8166
43.2111
43.2111
37.344
37.344
41.6631
41.6631
43.2111
43.2111
38.7315
38.7315
37.344
37.344
41.6631
41.6631
40.1706
40.1706
38.7315
38.7315
43.2111
43.2111
38.7315
38.7315
34.7163
34.7163
50
50
40.1706
40.1706
41.6631
41.6631
41.6631
41.6631
41.6631
41.6631
37.344
37.344
51.8578
51.8578
40.1706
40.1706
38.7315
38.7315
37.344
37.344
36.0062
36.0062
36.0062
36.0062
37.344
37.344
40.1706
40.1706
38.7315
38.7315
36.0062
36.0062
48.2088
48.2088
57.8555
57.8555
36.0062
36.0062
36.0062
36.0062
34.7163
34.7163
36.0062
36.0062
38.7315
38.7315
38.7315
38.7315
64.547
64.547
83.3262
83.3262
80.3411
80.3411
86.4222
86.4222
83.3262
83.3262
83.3262
83.3262
77.463
77.463
80.3411
80.3411
77.463
77.463
74.6879
74.6879
77.463
77.463
77.463
77.463
72.0123
72.0123
77.463
77.463
74.6879
74.6879
72.0123
72.0123
69.4326
69.4326
74.6879
74.6879
69.4326
69.4326
72.0123
72.0123
77.463
77.463
69.4326
69.4326
66.9452
66.9452
74.6879
74.6879
66.9452
66.9452
72.0123
72.0123
69.4326
69.4326
64.547
64.547
74.6879
74.6879
72.0123
72.0123
64.547
64.547
62.2346
62.2346
60.0051
60.0051
72.0123
72.0123
69.4326
69.4326
62.2346
62.2346
60.0051
60.0051
57.8555
57.8555
69.4326
69.4326
66.9452
66.9452
72.0123
72.0123
66.9452
66.9452
69.4326
69.4326
66.9452
66.9452
62.2346
62.2346
60.0051
60.0051
60.0051
60.0051
69.4326
69.4326
64.547
64.547
55.7829
55.7829
69.4326
69.4326
69.4326
69.4326
64.547
64.547
55.7829
55.7829
64.547
64.547
53.7845
53.7845
66.9452
66.9452
69.4326
69.4326
51.8578
51.8578
66.9452
66.9452
51.8578
51.8578
66.9452
66.9452
60.0051
60.0051
64.547
64.547
62.2346
62.2346
50
50
66.9452
66.9452
69.4326
69.4326
48.2088
48.2088
69.4326
69.4326
64.547
64.547
66.9452
66.9452
66.9452
66.9452
69.4326
69.4326
62.2346
62.2346
62.2346
62.2346
60.0051
60.0051
64.547
64.547
62.2346
62.2346
48.2088
48.2088
60.0051
60.0051
60.0051
60.0051
57.8555
57.8555
55.7829
55.7829
53.7845
53.7845
57.8555
57.8555
62.2346
62.2346
53.7845
53.7845
57.8555
57.8555
57.8555
57.8555
57.8555
57.8555
55.7829
55.7829
57.8555
57.8555
57.8555
57.8555
66.9452
66.9452
43.2111
43.2111
64.547
64.547
62.2346
62.2346
60.0051
60.0051
53.7845
53.7845
53.7845
53.7845
62.2346
62.2346
50
50
62.2346
62.2346
64.547
64.547
55.7829
55.7829
57.8555
57.8555
57.8555
57.8555
60.0051
60.0051
57.8555
57.8555
57.8555
57.8555
50
50
64.547
64.547
60.0051
60.0051
60.0051
60.0051
53.7845
53.7845
55.7829
55.7829
57.8555
57.8555
57.8555
57.8555
51.8578
51.8578
55.7829
55.7829
51.8578
51.8578
57.8555
57.8555
57.8555
57.8555
50
50
55.7829
55.7829
50
50
55.7829
55.7829
60.0051
60.0051
51.8578
51.8578
55.7829
55.7829
48.2088
48.2088
55.7829
55.7829
55.7829
55.7829
55.7829
55.7829
51.8578
51.8578
48.2088
48.2088
100
96.4176
96.4176
92.9635
92.9635
86.4222
86.4222
83.3262
83.3262
89.6332
89.6332
80.3411
80.3411
86.4222
86.4222
77.463
77.463
83.3262
83.3262
74.6879
74.6879
72.0123
72.0123
69.4326
69.4326
72.0123
72.0123
80.3411
80.3411
69.4326
69.4326
77.463
77.463
66.9452
66.9452
64.547
64.547
66.9452
66.9452
74.6879
74.6879
64.547
64.547
64.547
64.547
72.0123
72.0123
62.2346
62.2346
62.2346
62.2346
69.4326
69.4326
66.9452
66.9452
62.2346
62.2346
60.0051
60.0051
57.8555
57.8555
60.0051
60.0051
57.8555
57.8555
64.547
64.547
64.547
64.547
62.2346
62.2346
60.0051
60.0051
69.4326
69.4326
55.7829
55.7829
53.7845
53.7845
51.8578
51.8578
62.2346
62.2346
50
50
57.8555
57.8555
60.0051
60.0051
55.7829
55.7829
48.2088
48.2088
57.8555
57.8555
55.7829
55.7829
57.8555
57.8555
50
50
53.7845
53.7845
55.7829
55.7829
46.4818
46.4818
51.8578
51.8578
48.2088
48.2088
48.2088
48.2088
46.4818
46.4818
53.7845
53.7845
51.8578
51.8578
50
50
53.7845
53.7845
44.8166
44.8166
46.4818
46.4818
53.7845
53.7845
43.2111
43.2111
44.8166
44.8166
44.8166
44.8166
44.8166
44.8166
41.6631
41.6631
50
50
43.2111
43.2111
50
50
43.2111
43.2111
40.1706
40.1706
51.8578
51.8578
40.1706
40.1706
40.1706
40.1706
38.7315
38.7315
41.6631
41.6631
37.344
37.344
48.2088
48.2088
37.344
37.344
50
50
36.0062
36.0062
38.7315
38.7315
48.2088
48.2088
46.4818
46.4818
36.0062
36.0062
48.2088
48.2088
34.7163
34.7163
37.344
37.344
40.1706
40.1706
34.7163
34.7163
41.6631
41.6631
36.0062
36.0062
46.4818
46.4818
33.4726
33.4726
34.7163
34.7163
38.7315
38.7315
34.7163
34.7163
32.2735
32.2735
43.2111
43.2111
33.4726
33.4726
44.8166
44.8166
38.7315
38.7315
37.344
37.344
32.2735
32.2735
33.4726
33.4726
32.2735
32.2735
31.1173
31.1173
37.344
37.344
41.6631
41.6631
43.2111
43.2111
37.344
37.344
31.1173
31.1173
30.0026
30.0026
41.6631
41.6631
28.9278
28.9278
36.0062
36.0062
40.1706
40.1706
36.0062
36.0062
27.8914
27.8914
28.9278
28.9278
27.8914
27.8914
26.8923
26.8923
25
25
38.7315
38.7315
26.8923
26.8923
24.1044
24.1044
25.9289
25.9289
25.9289
25.9289
37.344
37.344
25
25
25
25
23.2409
23.2409
25
25
24.1044
24.1044
24.1044
24.1044
23.2409
23.2409
