# vtk DataFile Version 3.0
Tree
ASCII
DATASET POLYDATA
POINTS 1582 float
162774 225274 273.8
162774 225274 10273.8
141774 225774 23773.8
139774 213262 31773.8
140214 218155 31273.8
136774 209782 52773.8
138356 213633 42883.8
118774 204774 47949.8
137249 210937 49807
148774 201774 66961.8
124649 207432 46430.2
120774 198050 66773.8
148905 201733 65031.8
159122 193774 74773.8
148813 201761 66383
135774 196070 80773.8
121936 200864 60670.6
104254 190774 63773.8
120107 198355 65761
111774 189974 81773.8
156502 195096 70025
171786 178774 70773.8
158336 194171 73349
168862 185774 92773.8
105708 190675 64149
94289.8 181774 67773.8
136103 196852 80679.8
125774 193986 92773.8
167691 181361 69311.4
172014 165774 61773.8
166319 187313 85415
177014 175774 88773.8
139916 198325 76391
143774 195998 100774
171746 167402 65025.8
175998 153774 64773.8
173805 179235 87766.2
177774 175774 105454
126545 195133 92136.2
113774 193986 107774
173362 162223 64930.2
171978 153774 51773.8
95760.2 182233 67775
82773.8 167886 74773.8
91864.6 177929 69874.6
87773.8 176774 90429.8
140579 196743 96891.4
136774 195998 114774
172489 165019 64981.8
180774 157774 81581.8
91867.4 178467 78070.6
99773.8 183998 88773.8
178289 159947 76601.8
181962 143774 76773.8
175351 154491 64548.6
177966 137774 62773.8
176266 177089 98732.6
183914 156774 104774
179922 167835 103793
183262 161774 119774
84774.6 168762 73031
79533.8 154774 71773.8
87653.8 176251 88121
79021.8 169774 97773.8
87737.8 176617 89737
93585.8 184774 100774
117082 194826 106152
112774 197774 126346
136007 196182 113282
130774 196018 124774
136544 196053 114326
150774 195998 120774
143090 196028 117292
143774 195998 130774
168099 186235 90566.2
165982 188774 110774
181357 145029 77558.6
183998 129774 79773.8
177647 138643 61941.8
179814 121774 57773.8
158886 193893 74346.2
152774 194014 84773.8
178630 127678 57895.8
176774 121774 48225.8
182209 159570 102952
183998 142774 94773.8
183402 157613 104227
183998 140774 119774
182399 162033 118580
183998 155774 133774
80697 157151 73093.4
77733.8 144774 78773.8
78859.8 149477 76615
81601.8 137774 68773.8
81120.2 141870 69978.2
85017.8 137774 57773.8
81611.4 171717 94877.8
77773.8 147774 105890
78071.4 146185 78126.2
77549.8 142774 91773.8
183309 156365 127381
183990 140774 134774
91831.4 182327 97463
84773.8 180774 117954
86891 181240 111807
81481.8 165774 118774
113873 197111 125712
111774 198774 147162
110481 197135 134797
103558 195774 139774
148729 195623 120957
159774 193230 132774
79363.8 157134 103139
79537.8 154774 113774
143725 195981 130463
144774 195886 152774
155577 194139 128283
167774 189226 124774
110869 197627 138507
127202 199774 144774
85578.2 180951 115618
90345.8 187774 123774
183217 142743 132777
179782 124774 134774
140186 196810 145359
134774 198002 154774
111430 198338 143873
104218 189774 152774
183758 141365 134175
179814 136774 150774
181989 133119 130767
181774 123774 123886
81457.4 139003 69135
87545.8 121774 65773.8
180997 138151 145794
176774 128226 147774
181864 126297 124468
182002 123774 114774
85015 180827 117253
87545.8 175774 131774
179509 136526 149613
174006 130774 157774
183367 156075 133173
182002 155774 152774
158389 193277 132408
162774 190774 143954
77873.4 144889 83312.2
82317.8 127774 88773.8
111671 198643 146175
114682 195774 160774
85697 127664 65410.2
89561.8 120774 54773.8
136991 197553 153159
137082 197774 166774
78890.2 149230 105334
81773.8 134774 108798
181656 163774 114144
180010 171774 124774
79950.2 154249 110041
83017.8 143774 119774
179677 125627 133577
174774 114774 133950
86722.6 174871 128247
87497.8 166774 135774
174759 131207 155594
168774 122774 157946
113455 197363 125953
102774 194098 122774
181801 124531 124061
177394 111774 120774
87637.4 175241 131233
91669.8 175774 142774
113779 196635 156394
108774 181774 167974
176661 129035 147420
171546 119774 148774
87203.4 169851 132914
84773.8 158774 129974
181563 156281 150870
180014 156774 161774
89169.8 175443 135619
94773.8 185774 139162
82219 129921 89713
85773.8 120774 96809.8
109685 186135 163081
102774 175774 161974
84707.4 123518 94680.6
88773.8 115582 90773.8
114794 195513 160108
118774 190774 171974
179723 136699 150425
177194 139774 160774
87579 122487 66317.4
93461.8 108774 70773.8
163398 190435 127543
173978 182774 133774
89079 121094 57225.8
93565.8 109774 51773.8
91569.4 175265 142246
95773.8 172774 152802
174232 130904 157120
168774 130774 167950
84822.2 138525 58264.2
88773.8 135774 45577.8
143397 196163 150549
154774 192018 152774
92219.8 113170 53409.4
94521.8 111774 42773.8
117260 190933 169442
115638 182774 176774
138400 196756 162179
146774 191186 175774
85966.2 121193 96139
91033.8 113774 99773.8
142218 194083 170628
139954 194774 180774
178357 113678 119987
175774 100774 108814
179877 156361 160370
176050 154774 172774
82932.6 144922 117706
88325.8 131774 123774
104287 176891 162245
100254 163774 161774
175230 117453 134824
165774 106774 141130
85831.4 120900 96608.6
86773.8 123774 107166
122302 199130 142894
123774 200002 154774
177683 112345 120538
169234 101774 127774
93161.8 110793 52264.6
97485.8 100774 60773.8
172497 182378 131888
179774 175082 134774
169270 124211 157596
160774 116774 159982
88655.8 116424 91828.6
95773.8 106290 90773.8
115610 183717 174934
112310 173774 177774
168987 130293 166121
159774 127090 175774
93009 111327 72065
97565.8 102774 77773.8
182681 156154 139898
181998 166774 145774
168838 130629 167401
171774 140774 172970
177504 155377 168060
174774 167158 175774
88125.4 133109 121832
93773.8 121518 123774
172943 105863 123682
169774 98513.8 120774
176225 154241 171210
172006 148774 178774
123863 199670 154052
125774 199814 165774
170349 99554.6 120411
167774 91773.8 112574
89505.4 116684 99891
95681.8 111774 111774
173534 182655 133208
171774 185258 144774
162538 128051 172878
161254 133774 183774
93638.6 109330 91090.2
99773.8 103774 102134
139851 195741 165390
151774 190774 165170
175101 163783 174811
171846 165774 183774
84490.6 141378 118944
88997.8 139774 131774
175154 101576 109937
172514 93773.8 103774
88229 138935 127781
94773.8 129774 135326
161742 131599 179633
166774 139774 181318
95595.8 107031 90400.6
103502 98773.8 86773.8
102109 169808 161991
107354 159774 173774
168068 92863.8 112898
165882 86773.8 104774
97299.4 101778 60971.4
100526 95773.8 68773.8
181625 165026 145307
178014 174774 153774
173272 150414 176505
169958 154774 187774
99041.8 98535.8 65184.6
104290 89773.8 62773.8
169947 98826.2 120665
162410 93773.8 125774
95905.4 111552 110423
101774 106774 117134
93779 130847 133351
100290 119774 135774
113910 175854 178040
115490 163774 186774
170952 153466 184393
166774 148226 189774
162969 190535 143373
167230 187774 151774
171728 165537 182861
166774 167774 193318
105297 161886 169265
105774 149774 171026
174151 98611.4 107595
177774 98773.8 96797.8
99999.8 107849 113778
107126 99773.8 113774
148021 191857 166311
154774 186098 172774
168260 167103 190181
162774 175774 191130
94475.4 130096 134733
100342 127774 144774
167106 88765.4 106077
169158 85773.8 93773.8
102728 99249 86534.2
109774 91033.8 81773.8
105555 155345 170216
111506 150774 179774
166249 87371.4 105165
157774 81017.8 99773.8
97429.8 101075 60833
100318 93773.8 53773.8
105713 101357 112935
110774 95505.8 107774
177693 173726 153702
173774 179386 160774
101849 106865 116212
108774 103506 122774
176614 98026.2 98006.2
177774 96289.8 88773.8
104480 105588 118705
104774 109658 128774
163029 84957 103116
155894 81773.8 107774
108151 92375.4 81566.6
111774 84773.8 71113.8
176715 95877.4 92183.8
173774 88009.8 84773.8
111983 84878.2 71633.4
114774 79773.8 65133.8
159333 82190.6 99823.8
155774 79545.8 91773.8
97819.4 129892 141577
100342 135774 152774
152158 187788 171912
152974 183774 182774
152657 183939 182233
152774 179774 193258
110357 150608 177499
114774 140774 181958
107971 104132 122548
113774 102774 131334
99181.4 133068 147623
95533.8 143774 148774
173543 89846.2 87367.4
164774 81457.8 84773.8
111718 146296 178321
111562 138774 174774
115586 163999 185659
117638 150774 192774
114296 80007.4 65153
116258 74773.8 57773.8
174132 178192 160035
168774 181774 169134
99996.2 135807 151688
100774 142774 157894
165282 188600 150233
163966 186774 161774
114631 79843.8 65139.4
122226 75773.8 66773.8
170810 180413 165676
171842 175774 173774
109712 103725 125184
117774 96345.8 124774
179973 156650 161353
177950 169774 164774
114020 143148 181514
118774 140774 189958
173705 88560.6 85551.8
172774 79773.8 74885.8
168647 181587 168433
162774 183842 172774
111494 139965 174777
110774 132774 167958
166861 82927 84367
162774 75773.8 76865.8
115826 142246 184723
120774 132274 185774
95951.8 141863 147623
91485.8 150774 142774
164905 77997.4 78695.4
167774 73773.8 71181.8
112727 103664 130431
118774 106210 143774
111541 139131 174775
116774 132774 177986
118507 141429 189360
124234 141774 198774
115204 134681 177023
116374 126774 171774
117799 96836.6 124880
124774 91773.8 124802
116451 104150 136409
124206 100774 139774
165736 171091 190617
165774 177546 182774
119891 95317.8 124857
121774 89773.8 115934
118077 105592 141564
112774 113510 146774
119858 134024 184790
123774 125546 180774
116062 108601 143544
118774 111518 151774
118565 106025 143111
125774 103774 147958
122224 91679 119748
130774 86353.8 115774
91487 150315 142818
87661.8 156774 138774
99585 128409 143815
105774 118678 144774
113847 112529 146623
112218 118774 153774
123465 105301 147248
131422 107774 157774
91486.2 150636 142787
92317.8 158774 147774
130278 87055.4 115958
138774 82773.8 111890
126573 89182.2 117701
136734 87773.8 124774
100115 127965 144486
105738 126774 154774
127209 107350 153668
125774 112342 160774
128277 88203.8 116899
127658 84773.8 106774
100556 164626 161233
97773.8 154774 157370
136080 83852.2 112054
140774 79773.8 102894
138239 81976.2 107841
132774 81553.8 99773.8
116114 127998 172071
116774 120270 163774
133686 88196.2 122652
133598 92773.8 132774
133116 81802.6 99828.6
128774 81773.8 92797.8
116523 123207 166927
[...]
CELL_DATA 1581
SCALARS radius float
LOOKUP_TABLE default
100
100
100
100
92.9635
92.9635
89.6332
89.6332
86.4222
86.4222
86.4222
86.4222
83.3262
83.3262
80.3411
80.3411
83.3262
83.3262
80.3411
80.3411
80.3411
80.3411
77.463
77.463
80.3411
80.3411
74.6879
74.6879
74.6879
74.6879
74.6879
74.6879
77.463
77.463
72.0123
72.0123
72.0123
72.0123
72.0123
72.0123
66.9452
66.9452
77.463
77.463
74.6879
74.6879
72.0123
72.0123
69.4326
69.4326
72.0123
72.0123
64.547
64.547
64.547
64.547
69.4326
69.4326
66.9452
66.9452
72.0123
72.0123
66.9452
66.9452
64.547
64.547
69.4326
69.4326
69.4326
69.4326
66.9452
66.9452
64.547
64.547
72.0123
72.0123
57.8555
57.8555
62.2346
62.2346
74.6879
74.6879
55.7829
55.7829
64.547
64.547
62.2346
62.2346
62.2346
62.2346
69.4326
69.4326
66.9452
66.9452
64.547
64.547
64.547
64.547
64.547
64.547
60.0051
60.0051
62.2346
62.2346
60.0051
60.0051
66.9452
66.9452
64.547
64.547
62.2346
62.2346
62.2346
62.2346
62.2346
62.2346
60.0051
60.0051
62.2346
62.2346
57.8555
57.8555
57.8555
57.8555
60.0051
60.0051
60.0051
60.0051
55.7829
55.7829
55.7829
55.7829
62.2346
62.2346
53.7845
53.7845
53.7845
53.7845
55.7829
55.7829
51.8578
51.8578
57.8555
57.8555
57.8555
57.8555
62.2346
62.2346
57.8555
57.8555
60.0051
60.0051
57.8555
57.8555
57.8555
57.8555
64.547
64.547
60.0051
60.0051
53.7845
53.7845
51.8578
51.8578
50
50
64.547
64.547
51.8578
51.8578
50
50
55.7829
55.7829
51.8578
51.8578
50
50
53.7845
53.7845
48.2088
48.2088
60.0051
60.0051
53.7845
53.7845
57.8555
57.8555
53.7845
53.7845
48.2088
48.2088
55.7829
55.7829
55.7829
55.7829
57.8555
57.8555
44.8166
44.8166
48.2088
48.2088
60.0051
60.0051
57.8555
57.8555
55.7829
55.7829
50
50
55.7829
55.7829
55.7829
55.7829
51.8578
51.8578
50
50
51.8578
51.8578
57.8555
57.8555
50
50
50
50
53.7845
53.7845
57.8555
57.8555
48.2088
48.2088
53.7845
53.7845
51.8578
51.8578
46.4818
46.4818
55.7829
55.7829
48.2088
48.2088
44.8166
44.8166
50
50
55.7829
55.7829
43.2111
43.2111
50
50
51.8578
51.8578
46.4818
46.4818
48.2088
48.2088
55.7829
55.7829
44.8166
44.8166
53.7845
53.7845
50
50
43.2111
43.2111
51.8578
51.8578
53.7845
53.7845
48.2088
48.2088
55.7829
55.7829
46.4818
46.4818
53.7845
53.7845
40.1706
40.1706
50
50
48.2088
48.2088
43.2111
43.2111
50
50
53.7845
53.7845
46.4818
46.4818
48.2088
48.2088
43.2111
43.2111
51.8578
51.8578
51.8578
51.8578
46.4818
46.4818
44.8166
44.8166
55.7829
55.7829
46.4818
46.4818
46.4818
46.4818
44.8166
44.8166
50
50
51.8578
51.8578
44.8166
44.8166
50
50
41.6631
41.6631
48.2088
48.2088
44.8166
44.8166
40.1706
40.1706
48.2088
48.2088
48.2088
48.2088
51.8578
51.8578
48.2088
48.2088
43.2111
43.2111
46.4818
46.4818
38.7315
38.7315
44.8166
44.8166
41.6631
41.6631
43.2111
43.2111
37.344
37.344
48.2088
48.2088
50
50
48.2088
48.2088
43.2111
43.2111
44.8166
44.8166
46.4818
46.4818
40.1706
40.1706
41.6631
41.6631
43.2111
43.2111
41.6631
41.6631
50
50
44.8166
44.8166
53.7845
53.7845
40.1706
40.1706
48.2088
48.2088
43.2111
43.2111
50
50
40.1706
40.1706
37.344
37.344
46.4818
46.4818
40.1706
40.1706
38.7315
38.7315
38.7315
38.7315
43.2111
43.2111
37.344
37.344
41.6631
41.6631
38.7315
38.7315
37.344
37.344
37.344
37.344
41.6631
41.6631
40.1706
40.1706
43.2111
43.2111
40.1706
40.1706
38.7315
38.7315
37.344
37.344
37.344
37.344
37.344
37.344
38.7315
38.7315
40.1706
40.1706
46.4818
46.4818
36.0062
36.0062
36.0062
36.0062
38.7315
38.7315
34.7163
34.7163
37.344
37.344
44.8166
44.8166
33.4726
33.4726
36.0062
36.0062
46.4818
46.4818
33.4726
33.4726
32.2735
32.2735
36.0062
36.0062
34.7163
34.7163
30.0026
30.0026
34.7163
34.7163
36.0062
36.0062
33.4726
33.4726
86.4222
86.4222
89.6332
89.6332
80.3411
80.3411
86.4222
86.4222
77.463
77.463
83.3262
83.3262
83.3262
83.3262
77.463
77.463
83.3262
83.3262
74.6879
74.6879
80.3411
80.3411
80.3411
80.3411
72.0123
72.0123
74.6879
74.6879
69.4326
69.4326
77.463
77.463
80.3411
80.3411
69.4326
69.4326
77.463
77.463
77.463
77.463
72.0123
72.0123
77.463
77.463
72.0123
72.0123
74.6879
74.6879
72.0123
72.0123
74.6879
74.6879
69.4326
69.4326
74.6879
74.6879
66.9452
66.9452
72.0123
72.0123
66.9452
66.9452
72.0123
72.0123
74.6879
74.6879
69.4326
69.4326
74.6879
74.6879
69.4326
69.4326
69.4326
69.4326
72.0123
72.0123
66.9452
66.9452
66.9452
66.9452
64.547
64.547
62.2346
62.2346
66.9452
66.9452
69.4326
69.4326
66.9452
66.9452
66.9452
66.9452
69.4326
69.4326
72.0123
72.0123
64.547
64.547
66.9452
66.9452
64.547
64.547
66.9452
66.9452
64.547
64.547
69.4326
69.4326
64.547
64.547
64.547
64.547
62.2346
62.2346
64.547
64.547
60.0051
60.0051
62.2346
62.2346
62.2346
62.2346
62.2346
62.2346
64.547
64.547
60.0051
60.0051
60.0051
60.0051
62.2346
62.2346
66.9452
66.9452
57.8555
57.8555
60.0051
60.0051
62.2346
62.2346
62.2346
62.2346
55.7829
55.7829
60.0051
60.0051
55.7829
55.7829
60.0051
60.0051
62.2346
62.2346
60.0051
60.0051
60.0051
60.0051
60.0051
60.0051
64.547
64.547
57.8555
57.8555
60.0051
60.0051
66.9452
66.9452
57.8555
57.8555
57.8555
57.8555
57.8555
57.8555
53.7845
53.7845
60.0051
60.0051
60.0051
60.0051
57.8555
57.8555
55.7829
55.7829
57.8555
57.8555
60.0051
60.0051
62.2346
62.2346
51.8578
51.8578
55.7829
55.7829
57.8555
57.8555
62.2346
62.2346
55.7829
55.7829
53.7845
53.7845
62.2346
62.2346
55.7829
55.7829
51.8578
51.8578
50
50
55.7829
55.7829
62.2346
62.2346
60.0051
60.0051
60.0051
60.0051
51.8578
51.8578
57.8555
57.8555
53.7845
53.7845
55.7829
55.7829
51.8578
51.8578
62.2346
62.2346
57.8555
57.8555
53.7845
53.7845
57.8555
57.8555
53.7845
53.7845
53.7845
53.7845
53.7845
53.7845
53.7845
53.7845
51.8578
51.8578
60.0051
60.0051
50
50
55.7829
55.7829
51.8578
51.8578
51.8578
51.8578
50
50
55.7829
55.7829
55.7829
55.7829
53.7845
53.7845
57.8555
57.8555
53.7845
53.7845
60.0051
60.0051
57.8555
57.8555
50
50
48.2088
48.2088
53.7845
53.7845
51.8578
51.8578
53.7845
53.7845
48.2088
48.2088
51.8578
51.8578
53.7845
53.7845
50
50
46.4818
46.4818
46.4818
46.4818
50
50
50
50
46.4818
46.4818
55.7829
55.7829
53.7845
53.7845
43.2111
43.2111
48.2088
48.2088
57.8555
57.8555
43.2111
43.2111
48.2088
48.2088
51.8578
51.8578
57.8555
57.8555
44.8166
44.8166
44.8166
44.8166
48.2088
48.2088
44.8166
44.8166
51.8578
51.8578
51.8578
51.8578
53.7845
53.7845
53.7845
53.7845
51.8578
51.8578
43.2111
43.2111
51.8578
51.8578
36.0062
36.0062
55.7829
55.7829
41.6631
41.6631
48.2088
48.2088
46.4818
46.4818
48.2088
48.2088
50
50
50
50
41.6631
41.6631
48.2088
48.2088
44.8166
44.8166
50
50
43.2111
43.2111
50
50
50
50
41.6631
41.6631
44.8166
44.8166
41.6631
41.6631
46.4818
46.4818
48.2088
48.2088
41.6631
41.6631
50
50
44.8166
44.8166
53.7845
53.7845
44.8166
44.8166
44.8166
44.8166
41.6631
41.6631
50
50
48.2088
48.2088
41.6631
41.6631
41.6631
41.6631
51.8578
51.8578
38.7315
38.7315
50
50
50
50
48.2088
48.2088
50
50
43.2111
43.2111
43.2111
43.2111
44.8166
44.8166
46.4818
46.4818
50
50
41.6631
41.6631
46.4818
46.4818
40.1706
40.1706
46.4818
46.4818
41.6631
41.6631
43.2111
43.2111
44.8166
44.8166
46.4818
46.4818
48.2088
48.2088
40.1706
40.1706
46.4818
46.4818
41.6631
41.6631
44.8166
44.8166
46.4818
46.4818
44.8166
44.8166
37.344
37.344
40.1706
40.1706
43.2111
43.2111
46.4818
46.4818
44.8166
44.8166
48.2088
48.2088
51.8578
51.8578
38.7315
38.7315
41.6631
41.6631
37.344
37.344
43.2111
43.2111
48.2088
48.2088
41.6631
41.6631
40.1706
40.1706
40.1706
40.1706
46.4818
46.4818
36.0062
36.0062
43.2111
43.2111
43.2111
43.2111
38.7315
38.7315
43.2111
43.2111
34.7163
34.7163
36.0062
36.0062
41.6631
41.6631
46.4818
46.4818
41.6631
41.6631
36.0062
36.0062
41.6631
41.6631
43.2111
43.2111
40.1706
40.1706
38.7315
38.7315
40.1706
40.1706
38.7315
38.7315
36.0062
36.0062
34.7163
34.7163
38.7315
38.7315
34.7163
34.7163
33.4726
33.4726
44.8166
44.8166
34.7163
34.7163
43.2111
43.2111
36.0062
36.0062
37.344
37.344
34.7163
34.7163
41.6631
41.6631
40.1706
40.1706
44.8166
44.8166
34.7163
34.7163
33.4726
33.4726
31.1173
31.1173
36.0062
36.0062
34.7163
34.7163
32.2735
32.2735
96.4176
96.4176
83.3262
83.3262
80.3411
80.3411
77.463
77.463
80.3411
80.3411
77.463
77.463
74.6879
74.6879
77.463
77.463
72.0123
72.0123
69.4326
69.4326
77.463
77.463
66.9452
66.9452
72.0123
72.0123
66.9452
66.9452
64.547
64.547
74.6879
74.6879
62.2346
62.2346
74.6879
74.6879
72.0123
72.0123
69.4326
69.4326
64.547
64.547
72.0123
72.0123
62.2346
62.2346
69.4326
69.4326
66.9452
66.9452
69.4326
69.4326
69.4326
69.4326
69.4326
69.4326
69.4326
69.4326
72.0123
72.0123
66.9452
66.9452
66.9452
66.9452
66.9452
66.9452
64.547
64.547
66.9452
66.9452
69.4326
69.4326
64.547
64.547
64.547
64.547
69.4326
69.4326
69.4326
69.4326
66.9452
66.9452
62.2346
62.2346
66.9452
66.9452
60.0051
60.0051
60.0051
60.0051
66.9452
66.9452
66.9452
66.9452
64.547
64.547
55.7829
55.7829
55.7829
55.7829
60.0051
60.0051
62.2346
62.2346
60.0051
60.0051
57.8555
57.8555
57.8555
57.8555
62.2346
62.2346
60.0051
60.0051
62.2346
62.2346
66.9452
66.9452
57.8555
57.8555
66.9452
66.9452
60.0051
60.0051
69.4326
69.4326
57.8555
57.8555
57.8555
57.8555
60.0051
60.0051
57.8555
57.8555
62.2346
62.2346
60.0051
60.0051
64.547
64.547
57.8555
57.8555
62.2346
62.2346
64.547
64.547
55.7829
55.7829
53.7845
53.7845
62.2346
62.2346
53.7845
53.7845
53.7845
53.7845
53.7845
53.7845
60.0051
60.0051
55.7829
55.7829
62.2346
62.2346
55.7829
55.7829
51.8578
51.8578
57.8555
57.8555
50
50
60.0051
60.0051
60.0051
60.0051
64.547
64.547
53.7845
53.7845
53.7845
53.7845
62.2346
62.2346
57.8555
57.8555
53.7845
53.7845
51.8578
51.8578
57.8555
57.8555
60.0051
60.0051
53.7845
53.7845
60.0051
60.0051
51.8578
51.8578
50
50
55.7829
55.7829
50
50
55.7829
55.7829
50
50
60.0051
60.0051
53.7845
53.7845
53.7845
53.7845
55.7829
55.7829
55.7829
55.7829
57.8555
57.8555
48.2088
48.2088
57.8555
57.8555
50
50
57.8555
57.8555
50
50
55.7829
55.7829
55.7829
55.7829
51.8578
51.8578
53.7845
53.7845
57.8555
57.8555
55.7829
55.7829
53.7845
53.7845
53.7845
53.7845
48.2088
48.2088
53.7845
53.7845
51.8578
51.8578
55.7829
55.7829
51.8578
51.8578
48.2088
48.2088
53.7845
53.7845
50
50
51.8578
51.8578
51.8578
51.8578
50
50
51.8578
51.8578
50
50
55.7829
55.7829
48.2088
48.2088
100
96.4176
96.4176
92.9635
92.9635
86.4222
86.4222
83.3262
83.3262
80.3411
80.3411
89.6332
89.6332
77.463
77.463
86.4222
86.4222
74.6879
74.6879
83.3262
83.3262
72.0123
72.0123
69.4326
69.4326
80.3411
80.3411
69.4326
69.4326
77.463
77.463
66.9452
66.9452
64.547
64.547
66.9452
66.9452
64.547
64.547
74.6879
74.6879
62.2346
62.2346
72.0123
72.0123
62.2346
62.2346
60.0051
60.0051
60.0051
60.0051
57.8555
57.8555
69.4326
69.4326
69.4326
69.4326
66.9452
66.9452
66.9452
66.9452
57.8555
57.8555
64.547
64.547
66.9452
66.9452
55.7829
55.7829
64.547
64.547
55.7829
55.7829
72.0123
72.0123
69.4326
69.4326
66.9452
66.9452
62.2346
62.2346
53.7845
53.7845
60.0051
60.0051
62.2346
62.2346
53.7845
53.7845
57.8555
57.8555
51.8578
51.8578
60.0051
60.0051
51.8578
51.8578
55.7829
55.7829
57.8555
57.8555
66.9452
66.9452
50
50
51.8578
51.8578
55.7829
55.7829
55.7829
55.7829
50
50
64.547
64.547
53.7845
53.7845
50
50
53.7845
53.7845
48.2088
48.2088
53.7845
53.7845
48.2088
48.2088
46.4818
46.4818
51.8578
51.8578
46.4818
46.4818
44.8166
44.8166
48.2088
48.2088
51.8578
51.8578
44.8166
44.8166
50
50
43.2111
43.2111
44.8166
44.8166
44.8166
44.8166
50
50
48.2088
48.2088
43.2111
43.2111
48.2088
48.2088
46.4818
46.4818
44.8166
44.8166
43.2111
43.2111
46.4818
46.4818
41.6631
41.6631
43.2111
43.2111
44.8166
44.8166
40.1706
40.1706
43.2111
43.2111
43.2111
43.2111
38.7315
38.7315
41.6631
41.6631
41.6631
41.6631
41.6631
41.6631
44.8166
44.8166
41.6631
41.6631
37.344
37.344
41.6631
41.6631
40.1706
40.1706
41.6631
41.6631
40.1706
40.1706
38.7315
38.7315
37.344
37.344
40.1706
40.1706
43.2111
43.2111
36.0062
36.0062
38.7315
38.7315
34.7163
34.7163
41.6631
41.6631
36.0062
36.0062
40.1706
40.1706
34.7163
34.7163
40.1706
40.1706
33.4726
33.4726
37.344
37.344
33.4726
33.4726
32.2735
32.2735
40.1706
40.1706
32.2735
32.2735
38.7315
38.7315
31.1173
31.1173
32.2735
32.2735
31.1173
31.1173
38.7315
38.7315
31.1173
31.1173
30.0026
30.0026
31.1173
31.1173
30.0026
30.0026
28.9278
28.9278
30.0026
30.0026
30.0026
30.0026
27.8914
27.8914
28.9278
28.9278
28.9278
28.9278
28.9278
28.9278
26.8923
26.8923
27.8914
27.8914
27.8914
27.8914
26.8923
26.8923
27.8914
27.8914
26.8923
26.8923
