# vtk DataFile Version 3.0
Tree
ASCII
DATASET POLYDATA
POINTS 1582 float
162774 225274 273.8
162774 225274 10273.8
141774 225774 23773.8
144122 214254 30497.8
143417 217710 28480.6
131774 208530 51773.8
135267 211284 44785.8
146774 204774 61885.8
132822 209356 49677.4
114774 201774 52805.8
132088 208778 51145
127774 199222 69773.8
145692 204991 58233
161238 193774 68773.8
129068 202089 64185
111582 192774 69773.8
150356 201626 61395.4
147774 196054 80773.8
151027 197571 73421
163082 189774 87773.8
115461 194914 66277.8
95577.8 184774 58773.8
112746 193416 68725
106774 187886 85773.8
159194 194002 66891.4
173846 175774 73773.8
128162 200082 68097
128774 193998 90773.8
148073 196577 80020.2
141774 195998 93773.8
168278 182701 71158.6
171222 167774 59773.8
162221 188973 85392.6
177230 175774 99773.8
101543 187816 61025
90773.8 177974 72773.8
94866.2 181714 68309.4
85773.8 171126 62773.8
126929 195639 86611
116774 193986 104774
170769 172092 65789.4
177026 152774 67773.8
172567 176792 74329.4
181814 161774 85773.8
92581 179602 72457
88773.8 175978 86773.8
143335 196154 92720.2
140774 195998 112774
175149 158569 67178.6
172774 148774 55521.8
174931 176421 99962.2
181886 166774 112774
118648 194009 98137
104774 190018 102774
177574 172755 104831
182014 159774 101774
88501.4 174302 64434.6
79533.8 160774 76773.8
108510 190584 100031
96773.8 184086 94773.8
117720 194278 104160
117774 196002 120774
162824 189533 87059.4
157102 193774 107774
176463 154513 67595
183386 138774 79773.8
180755 144755 75145.8
181774 129774 68501.8
179310 161871 83219.4
183998 148774 89773.8
181224 137863 72089.8
176022 135774 57773.8
142433 196048 110837
143774 195998 128774
84376.2 168079 70110.6
81533.8 148774 63773.8
180672 166767 110834
183998 151774 118774
181522 166772 112192
183774 163074 125774
80986.6 162965 74775
75773.8 161774 99877.8
103111 187595 97612.6
90317.8 185774 107774
77713.8 163775 94205.4
79577.8 173774 107774
181263 131992 68402.6
179814 120774 56773.8
117477 196293 119657
116774 199014 135774
79969.8 161431 76174.2
76361.8 148774 87773.8
142835 196033 116218
155774 194014 122774
142185 196285 125359
134774 197962 135774
138776 197056 130150
144774 195998 142774
170340 181704 96656.6
173910 182774 112774
177143 135043 58995
174082 130774 45773.8
76355.8 162374 98176.2
77601.8 147774 104774
183100 153442 116910
183998 134774 120774
176335 131069 50915
180774 119774 41889.8
115480 197779 131113
105774 196998 142774
183729 152274 118215
183998 145774 136774
175479 130957 48961.4
183774 131154 38773.8
182732 150490 89264.2
183998 135774 98773.8
183453 141402 93424.6
183998 130774 89773.8
82692.6 151326 66044.6
84329.8 129774 67773.8
183917 147724 131206
180054 129774 136774
183954 146827 133767
183998 156774 144774
141835 196633 140035
138774 197886 154774
94439.4 185851 106782
87773.8 181774 126094
182333 141484 134889
180054 137774 146774
153863 193965 122404
167082 189774 132774
78177.8 151104 83293.8
80313.8 133774 84773.8
182803 135937 121333
181774 124654 124774
109642 196820 140513
109138 193774 155774
84884.6 132706 65679
87713.8 121774 61773.8
179865 137281 144760
176774 131774 153166
108172 196887 141372
95737.8 190774 134774
179997 137626 146170
181994 147774 151774
171777 183218 111431
171978 184774 123774
78401.4 148478 104030
81525.8 137774 107774
180210 131396 135869
176774 118774 133950
89523.4 181101 119570
83605.8 166774 127774
180101 130260 136503
175774 123774 145934
77787.8 152647 102274
81773.8 147774 119950
140671 197109 145636
125774 200002 149774
88946.2 180591 124431
89773.8 175774 137982
163116 191031 129663
161070 191774 146774
84227 138292 65788.6
89449.8 128774 50773.8
109289 194688 151195
101774 180774 158862
176628 132331 151821
169774 125130 159774
117569 195528 113768
102774 194054 121774
182083 128039 123742
179966 114774 115774
109292 193420 154925
109774 188442 163774
181284 146014 151397
180774 154774 159890
109224 188597 161805
106774 179946 166774
138598 197636 153675
132774 198042 169774
80298.6 137053 85774.2
84325.8 123774 94773.8
109389 188550 162395
118774 194774 165978
87509.8 123605 61708.2
91713.8 113774 53773.8
160499 191853 142574
153046 193774 149774
83117.8 127757 92073.8
87657.8 116774 86773.8
85746.6 169522 126819
87485.8 158774 136774
137890 197218 160556
144774 193870 171774
90452.6 116723 56154.2
92773.8 117774 44225.8
183956 151745 137160
183886 162774 136774
81881.4 149539 64455
85529.8 141774 53773.8
172455 183861 121701
175774 181258 132774
176730 131941 152763
175774 138578 162774
87652.6 122323 61754.2
93461.8 108774 72773.8
179811 116955 118230
174774 104774 117954
85447 142517 53817.4
88361.8 137774 44773.8
103059 181866 155923
97773.8 168774 157130
176857 122071 135741
168774 110774 141946
84612.2 124380 93817
90773.8 113594 97773.8
81022.2 141677 108124
87525.8 132774 121774
109658 188474 163360
116774 184774 175974
171463 113888 138820
167774 104774 135130
90782.6 115124 65753.8
95485.8 104774 62773.8
142709 194874 168409
138774 195782 180774
169581 111708 141008
165134 114774 153774
180293 151988 158721
176062 156774 172774
99359.4 172701 156768
92317.8 164774 147774
175994 107223 117039
173774 98773.8 110886
170990 127740 158811
161322 125774 172774
84411.8 123956 94486.6
85773.8 124774 106814
114070 186180 171181
111774 175774 176022
175140 105509 117679
169774 101774 126122
86224.6 134057 117835
90773.8 124774 119962
154460 193255 149094
148774 193774 158806
175472 136786 161191
171774 138578 170774
106135 189915 151993
98773.8 185326 147774
164980 114878 153347
160774 117774 163190
88824.2 117209 94952.2
95773.8 106290 89773.8
106988 180717 165432
103578 168774 166774
169016 111054 141665
161774 104774 143322
177331 155338 168558
172066 147774 176774
93482.2 109213 71158.2
98773.8 99661.8 74773.8
174776 181675 132311
176002 179774 143774
164135 127285 170008
162774 132774 179946
176443 156343 171509
173998 167774 176774
90189 114679 96927.4
96541.8 109774 110774
98249.4 169952 157021
100774 157774 161990
176284 179051 139545
181782 168774 148774
93981.8 111008 102167
98289.8 105774 103774
152299 193452 152785
156774 189954 161774
176176 156645 172394
173774 158774 181070
95461.4 105141 63447.4
100774 94257.8 61773.8
173101 104089 120887
166774 94773.8 119946
96652.6 107763 103163
100290 101774 95773.8
89045 128302 119153
95773.8 125774 133970
174440 101309 112732
177386 101774 102774
104946 170879 167145
106774 160774 172010
173973 99534.2 111439
166774 89501.8 106774
174080 159289 178832
169954 167774 186774
112534 177183 175545
112774 165774 181954
172128 148189 176537
167774 142774 182970
175579 180105 142457
171954 184774 149774
163400 130249 175374
155774 127110 181774
100299 102769 96209.8
105518 96773.8 86773.8
161203 191353 146228
163774 188526 155774
173865 158928 180399
168774 154774 189890
96863 109456 109430
103774 105122 117774
155286 190593 160634
154774 187774 170966
98936.2 108155 111933
104774 101558 109774
179253 173501 144528
177890 174774 156774
100387 107245 113685
100362 110774 121774
167274 105730 135559
161774 97773.8 132446
176502 101634 105761
173866 91773.8 93773.8
100007 96568.6 62925.8
105542 89773.8 66773.8
107126 161207 172067
110122 150774 177774
167248 96449 120316
157962 88773.8 120774
102110 93986.6 64387.8
105774 86269.8 57773.8
173795 94347.4 98249.4
166774 85505.8 95773.8
170203 166068 185889
163774 171954 195774
93755 126532 129525
93541.8 133774 136774
166558 90501.4 107707
157774 81605.8 104774
93605.8 131601 134599
100774 129774 147326
167760 168305 189645
161774 177866 187774
108983 154739 175605
113486 154774 184774
105319 96732.2 88145.8
110774 89773.8 80889.8
100544 94951 62119.4
100774 93573.8 50773.8
177446 175309 153188
171314 181774 161774
103689 102529 109377
108286 95773.8 102774
154352 188255 169609
150774 185774 181202
100369 109715 119347
108774 105774 129138
105012 90662.2 65417
114258 80773.8 65773.8
173576 91974.6 94220.2
171974 86773.8 85773.8
103438 105146 116483
111774 98773.8 121114
98049.8 130468 142490
97609.8 139774 150774
159185 83875.4 103752
152774 79545.8 97773.8
110197 151639 177681
114154 144774 183774
167970 87230.6 95517
161774 80773.8 89165.8
95168.2 126001 132636
101006 117774 133774
177332 174949 156215
175774 173774 167894
95478.6 104884 62975.8
95661.8 102774 52773.8
172583 88750.2 88983.4
177774 90773.8 80969.8
163948 171059 193454
152774 176774 198026
112967 146833 181946
113666 137774 178774
108192 105635 126743
116302 100774 131774
110144 151033 177746
107774 143774 171926
113955 81747 65688.2
121102 75773.8 65773.8
113389 155043 184360
118286 155774 193774
163633 82711 91071
165774 79717.8 81773.8
100017 161427 160499
96317.8 150774 153774
172502 179888 160856
167974 180774 171774
118386 78043.8 65741.4
119586 72773.8 58773.8
175386 89843 84656.2
174774 82773.8 75945.8
96680.2 153370 154333
91773.8 148774 144802
113220 102621 129862
115570 105774 139774
107933 145034 172076
104342 138774 161774
113798 145392 183225
120342 136774 189774
105045 138596 162901
103774 132774 156970
116817 155555 190950
121506 145774 196774
113492 139240 178806
113774 130774 172886
165477 79530.6 82747.8
167774 74773.8 71969.8
113614 138214 178783
119006 131774 181774
110437 99654.2 119396
118302 92773.8 117774
167885 180631 171113
163774 181022 178774
121298 146033 195039
125142 137774 197774
115377 101328 131200
122774 94773.8 127954
167085 76201 75203
160774 70773.8 69969.8
93561 133122 136121
89537.8 143774 135774
114865 104828 136800
123586 102774 142774
115646 105787 139615
118278 108774 147774
117388 133706 180877
120282 125774 175774
117504 94179 118632
127774 89541.8 120774
115593 105778 139726
110774 113574 144774
121957 102769 140767
128774 98773.8 139958
112219 111235 143259
114226 115774 152774
123441 102911 142570
129418 103774 149774
121407 92417 119446
126774 85773.8 110806
127035 89790.6 120153
134774 85773.8 118898
112133 113796 146880
107734 120774 150774
128134 104101 148983
131774 107774 158022
98787.4 120900 133341
104326 119774 142774
118555 108378 147403
[...]
CELL_DATA 1581
SCALARS radius float
LOOKUP_TABLE default
100
100
100
100
92.9635
92.9635
89.6332
89.6332
86.4222
86.4222
83.3262
83.3262
86.4222
86.4222
80.3411
80.3411
83.3262
83.3262
80.3411
80.3411
77.463
77.463
74.6879
74.6879
80.3411
80.3411
77.463
77.463
77.463
77.463
74.6879
74.6879
77.463
77.463
74.6879
74.6879
72.0123
72.0123
74.6879
74.6879
72.0123
72.0123
72.0123
72.0123
69.4326
69.4326
74.6879
74.6879
69.4326
69.4326
72.0123
72.0123
72.0123
72.0123
69.4326
69.4326
69.4326
69.4326
69.4326
69.4326
69.4326
69.4326
74.6879
74.6879
66.9452
66.9452
64.547
64.547
66.9452
66.9452
62.2346
62.2346
72.0123
72.0123
66.9452
66.9452
66.9452
66.9452
64.547
64.547
64.547
64.547
66.9452
66.9452
60.0051
60.0051
60.0051
60.0051
64.547
64.547
62.2346
62.2346
69.4326
69.4326
66.9452
66.9452
64.547
64.547
74.6879
74.6879
60.0051
60.0051
57.8555
57.8555
64.547
64.547
57.8555
57.8555
62.2346
62.2346
62.2346
62.2346
55.7829
55.7829
62.2346
62.2346
57.8555
57.8555
62.2346
62.2346
60.0051
60.0051
57.8555
57.8555
62.2346
62.2346
62.2346
62.2346
57.8555
57.8555
64.547
64.547
60.0051
60.0051
62.2346
62.2346
60.0051
60.0051
57.8555
57.8555
55.7829
55.7829
57.8555
57.8555
53.7845
53.7845
72.0123
72.0123
53.7845
53.7845
55.7829
55.7829
55.7829
55.7829
53.7845
53.7845
55.7829
55.7829
60.0051
60.0051
53.7845
53.7845
60.0051
60.0051
60.0051
60.0051
57.8555
57.8555
51.8578
51.8578
66.9452
66.9452
60.0051
60.0051
55.7829
55.7829
51.8578
51.8578
53.7845
53.7845
57.8555
57.8555
57.8555
57.8555
51.8578
51.8578
55.7829
55.7829
55.7829
55.7829
55.7829
55.7829
53.7845
53.7845
53.7845
53.7845
53.7845
53.7845
55.7829
55.7829
60.0051
60.0051
66.9452
66.9452
50
50
53.7845
53.7845
57.8555
57.8555
55.7829
55.7829
51.8578
51.8578
51.8578
51.8578
53.7845
53.7845
51.8578
51.8578
50
50
50
50
51.8578
51.8578
50
50
48.2088
48.2088
50
50
48.2088
48.2088
55.7829
55.7829
48.2088
48.2088
51.8578
51.8578
48.2088
48.2088
53.7845
53.7845
48.2088
48.2088
53.7845
53.7845
46.4818
46.4818
55.7829
55.7829
44.8166
44.8166
51.8578
51.8578
51.8578
51.8578
46.4818
46.4818
46.4818
46.4818
50
50
64.547
64.547
44.8166
44.8166
44.8166
44.8166
50
50
46.4818
46.4818
62.2346
62.2346
48.2088
48.2088
51.8578
51.8578
43.2111
43.2111
50
50
51.8578
51.8578
46.4818
46.4818
46.4818
46.4818
53.7845
53.7845
50
50
51.8578
51.8578
41.6631
41.6631
44.8166
44.8166
43.2111
43.2111
60.0051
60.0051
43.2111
43.2111
44.8166
44.8166
53.7845
53.7845
40.1706
40.1706
46.4818
46.4818
50
50
44.8166
44.8166
60.0051
60.0051
43.2111
43.2111
48.2088
48.2088
51.8578
51.8578
46.4818
46.4818
48.2088
48.2088
50
50
44.8166
44.8166
48.2088
48.2088
40.1706
40.1706
44.8166
44.8166
50
50
43.2111
43.2111
38.7315
38.7315
46.4818
46.4818
43.2111
43.2111
44.8166
44.8166
57.8555
57.8555
43.2111
43.2111
48.2088
48.2088
41.6631
41.6631
43.2111
43.2111
46.4818
46.4818
41.6631
41.6631
41.6631
41.6631
46.4818
46.4818
44.8166
44.8166
46.4818
46.4818
43.2111
43.2111
55.7829
55.7829
48.2088
48.2088
43.2111
43.2111
37.344
37.344
43.2111
43.2111
40.1706
40.1706
43.2111
43.2111
40.1706
40.1706
44.8166
44.8166
44.8166
44.8166
44.8166
44.8166
55.7829
55.7829
38.7315
38.7315
41.6631
41.6631
43.2111
43.2111
38.7315
38.7315
40.1706
40.1706
41.6631
41.6631
36.0062
36.0062
43.2111
43.2111
40.1706
40.1706
43.2111
43.2111
38.7315
38.7315
40.1706
40.1706
51.8578
51.8578
40.1706
40.1706
37.344
37.344
41.6631
41.6631
41.6631
41.6631
37.344
37.344
36.0062
36.0062
37.344
37.344
38.7315
38.7315
34.7163
34.7163
36.0062
36.0062
33.4726
33.4726
34.7163
34.7163
37.344
37.344
36.0062
36.0062
32.2735
32.2735
32.2735
32.2735
40.1706
40.1706
34.7163
34.7163
34.7163
34.7163
31.1173
31.1173
33.4726
33.4726
33.4726
33.4726
31.1173
31.1173
32.2735
32.2735
31.1173
31.1173
31.1173
31.1173
31.1173
31.1173
30.0026
30.0026
36.0062
36.0062
34.7163
34.7163
96.4176
96.4176
92.9635
92.9635
89.6332
89.6332
89.6332
89.6332
86.4222
86.4222
86.4222
86.4222
80.3411
80.3411
83.3262
83.3262
80.3411
80.3411
77.463
77.463
74.6879
74.6879
74.6879
74.6879
72.0123
72.0123
72.0123
72.0123
74.6879
74.6879
77.463
77.463
74.6879
74.6879
69.4326
69.4326
69.4326
69.4326
74.6879
74.6879
72.0123
72.0123
72.0123
72.0123
77.463
77.463
72.0123
72.0123
69.4326
69.4326
69.4326
69.4326
72.0123
72.0123
74.6879
74.6879
69.4326
69.4326
69.4326
69.4326
66.9452
66.9452
66.9452
66.9452
72.0123
72.0123
66.9452
66.9452
69.4326
69.4326
66.9452
66.9452
69.4326
69.4326
69.4326
69.4326
72.0123
72.0123
66.9452
66.9452
66.9452
66.9452
66.9452
66.9452
66.9452
66.9452
64.547
64.547
66.9452
66.9452
64.547
64.547
64.547
64.547
64.547
64.547
66.9452
66.9452
60.0051
60.0051
62.2346
62.2346
62.2346
62.2346
60.0051
60.0051
64.547
64.547
66.9452
66.9452
69.4326
69.4326
57.8555
57.8555
64.547
64.547
62.2346
62.2346
55.7829
55.7829
66.9452
66.9452
64.547
64.547
64.547
64.547
62.2346
62.2346
66.9452
66.9452
72.0123
72.0123
64.547
64.547
64.547
64.547
64.547
64.547
64.547
64.547
64.547
64.547
64.547
64.547
69.4326
69.4326
60.0051
60.0051
60.0051
60.0051
62.2346
62.2346
64.547
64.547
62.2346
62.2346
57.8555
57.8555
62.2346
62.2346
62.2346
62.2346
55.7829
55.7829
60.0051
60.0051
62.2346
62.2346
57.8555
57.8555
66.9452
66.9452
57.8555
57.8555
60.0051
60.0051
62.2346
62.2346
62.2346
62.2346
57.8555
57.8555
60.0051
60.0051
60.0051
60.0051
60.0051
60.0051
57.8555
57.8555
69.4326
69.4326
55.7829
55.7829
55.7829
55.7829
53.7845
53.7845
62.2346
62.2346
60.0051
60.0051
57.8555
57.8555
51.8578
51.8578
51.8578
51.8578
53.7845
53.7845
66.9452
66.9452
55.7829
55.7829
55.7829
55.7829
60.0051
60.0051
53.7845
53.7845
55.7829
55.7829
55.7829
55.7829
62.2346
62.2346
57.8555
57.8555
50
50
55.7829
55.7829
55.7829
55.7829
55.7829
55.7829
55.7829
55.7829
57.8555
57.8555
53.7845
53.7845
53.7845
53.7845
51.8578
51.8578
50
50
51.8578
51.8578
50
50
57.8555
57.8555
53.7845
53.7845
53.7845
53.7845
51.8578
51.8578
50
50
57.8555
57.8555
53.7845
53.7845
51.8578
51.8578
48.2088
48.2088
50
50
48.2088
48.2088
48.2088
48.2088
50
50
50
50
51.8578
51.8578
50
50
46.4818
46.4818
48.2088
48.2088
51.8578
51.8578
55.7829
55.7829
51.8578
51.8578
44.8166
44.8166
50
50
50
50
48.2088
48.2088
44.8166
44.8166
44.8166
44.8166
43.2111
43.2111
48.2088
48.2088
50
50
46.4818
46.4818
46.4818
46.4818
48.2088
48.2088
48.2088
48.2088
53.7845
53.7845
43.2111
43.2111
44.8166
44.8166
48.2088
48.2088
48.2088
48.2088
48.2088
48.2088
53.7845
53.7845
43.2111
43.2111
50
50
46.4818
46.4818
46.4818
46.4818
48.2088
48.2088
62.2346
62.2346
44.8166
44.8166
53.7845
53.7845
46.4818
46.4818
44.8166
44.8166
48.2088
48.2088
57.8555
57.8555
46.4818
46.4818
46.4818
46.4818
57.8555
57.8555
41.6631
41.6631
48.2088
48.2088
44.8166
44.8166
44.8166
44.8166
48.2088
48.2088
57.8555
57.8555
41.6631
41.6631
50
50
46.4818
46.4818
48.2088
48.2088
41.6631
41.6631
38.7315
38.7315
46.4818
46.4818
48.2088
48.2088
43.2111
43.2111
43.2111
43.2111
40.1706
40.1706
41.6631
41.6631
48.2088
48.2088
44.8166
44.8166
46.4818
46.4818
44.8166
44.8166
40.1706
40.1706
38.7315
38.7315
41.6631
41.6631
50
50
37.344
37.344
55.7829
55.7829
36.0062
36.0062
53.7845
53.7845
34.7163
34.7163
40.1706
40.1706
41.6631
41.6631
44.8166
44.8166
46.4818
46.4818
44.8166
44.8166
41.6631
41.6631
44.8166
44.8166
41.6631
41.6631
37.344
37.344
40.1706
40.1706
48.2088
48.2088
43.2111
43.2111
44.8166
44.8166
41.6631
41.6631
36.0062
36.0062
46.4818
46.4818
46.4818
46.4818
51.8578
51.8578
38.7315
38.7315
41.6631
41.6631
41.6631
41.6631
38.7315
38.7315
38.7315
38.7315
38.7315
38.7315
50
50
43.2111
43.2111
37.344
37.344
40.1706
40.1706
38.7315
38.7315
53.7845
53.7845
41.6631
41.6631
37.344
37.344
48.2088
48.2088
37.344
37.344
36.0062
36.0062
41.6631
41.6631
38.7315
38.7315
37.344
37.344
37.344
37.344
36.0062
36.0062
34.7163
34.7163
37.344
37.344
40.1706
40.1706
46.4818
46.4818
36.0062
36.0062
44.8166
44.8166
33.4726
33.4726
31.1173
31.1173
32.2735
32.2735
43.2111
43.2111
30.0026
30.0026
32.2735
32.2735
36.0062
36.0062
32.2735
32.2735
34.7163
34.7163
31.1173
31.1173
28.9278
28.9278
30.0026
30.0026
34.7163
34.7163
27.8914
27.8914
30.0026
30.0026
33.4726
33.4726
89.6332
89.6332
83.3262
83.3262
83.3262
83.3262
83.3262
83.3262
77.463
77.463
83.3262
83.3262
77.463
77.463
80.3411
80.3411
83.3262
83.3262
66.9452
66.9452
80.3411
80.3411
77.463
77.463
77.463
77.463
74.6879
74.6879
72.0123
72.0123
72.0123
72.0123
72.0123
72.0123
69.4326
69.4326
64.547
64.547
66.9452
66.9452
66.9452
66.9452
66.9452
66.9452
69.4326
69.4326
69.4326
69.4326
64.547
64.547
66.9452
66.9452
64.547
64.547
62.2346
62.2346
66.9452
66.9452
62.2346
62.2346
69.4326
69.4326
66.9452
66.9452
64.547
64.547
62.2346
62.2346
60.0051
60.0051
64.547
64.547
66.9452
66.9452
64.547
64.547
69.4326
69.4326
60.0051
60.0051
62.2346
62.2346
64.547
64.547
64.547
64.547
62.2346
62.2346
62.2346
62.2346
64.547
64.547
60.0051
60.0051
60.0051
60.0051
62.2346
62.2346
62.2346
62.2346
53.7845
53.7845
62.2346
62.2346
66.9452
66.9452
60.0051
60.0051
64.547
64.547
60.0051
60.0051
64.547
64.547
69.4326
69.4326
60.0051
60.0051
66.9452
66.9452
55.7829
55.7829
57.8555
57.8555
62.2346
62.2346
57.8555
57.8555
62.2346
62.2346
62.2346
62.2346
60.0051
60.0051
55.7829
55.7829
60.0051
60.0051
60.0051
60.0051
60.0051
60.0051
62.2346
62.2346
64.547
64.547
57.8555
57.8555
57.8555
57.8555
55.7829
55.7829
53.7845
53.7845
66.9452
66.9452
60.0051
60.0051
55.7829
55.7829
55.7829
55.7829
60.0051
60.0051
53.7845
53.7845
51.8578
51.8578
55.7829
55.7829
53.7845
53.7845
55.7829
55.7829
60.0051
60.0051
57.8555
57.8555
57.8555
57.8555
64.547
64.547
51.8578
51.8578
51.8578
51.8578
57.8555
57.8555
53.7845
53.7845
57.8555
57.8555
53.7845
53.7845
53.7845
53.7845
64.547
64.547
53.7845
53.7845
55.7829
55.7829
53.7845
53.7845
53.7845
53.7845
57.8555
57.8555
50
50
57.8555
57.8555
51.8578
51.8578
55.7829
55.7829
51.8578
51.8578
51.8578
51.8578
55.7829
55.7829
50
50
48.2088
48.2088
53.7845
53.7845
53.7845
53.7845
69.4326
69.4326
51.8578
51.8578
46.4818
46.4818
51.8578
51.8578
57.8555
57.8555
66.9452
66.9452
50
50
50
50
50
50
55.7829
55.7829
62.2346
62.2346
46.4818
46.4818
50
50
44.8166
44.8166
46.4818
46.4818
50
50
48.2088
48.2088
50
50
100
96.4176
96.4176
92.9635
92.9635
86.4222
86.4222
80.3411
80.3411
77.463
77.463
89.6332
89.6332
83.3262
83.3262
77.463
77.463
80.3411
80.3411
74.6879
74.6879
72.0123
72.0123
77.463
77.463
72.0123
72.0123
69.4326
69.4326
74.6879
74.6879
72.0123
72.0123
69.4326
69.4326
66.9452
66.9452
64.547
64.547
66.9452
66.9452
69.4326
69.4326
62.2346
62.2346
64.547
64.547
66.9452
66.9452
60.0051
60.0051
62.2346
62.2346
62.2346
62.2346
57.8555
57.8555
60.0051
60.0051
55.7829
55.7829
60.0051
60.0051
57.8555
57.8555
57.8555
57.8555
57.8555
57.8555
55.7829
55.7829
53.7845
53.7845
57.8555
57.8555
55.7829
55.7829
69.4326
69.4326
55.7829
55.7829
53.7845
53.7845
55.7829
55.7829
55.7829
55.7829
53.7845
53.7845
53.7845
53.7845
51.8578
51.8578
51.8578
51.8578
53.7845
53.7845
51.8578
51.8578
50
50
53.7845
53.7845
50
50
50
50
53.7845
53.7845
51.8578
51.8578
51.8578
51.8578
50
50
48.2088
48.2088
53.7845
53.7845
48.2088
48.2088
51.8578
51.8578
48.2088
48.2088
50
50
48.2088
48.2088
46.4818
46.4818
51.8578
51.8578
46.4818
46.4818
46.4818
46.4818
46.4818
46.4818
44.8166
44.8166
44.8166
44.8166
44.8166
44.8166
48.2088
48.2088
43.2111
43.2111
44.8166
44.8166
43.2111
43.2111
43.2111
43.2111
41.6631
41.6631
43.2111
43.2111
41.6631
41.6631
41.6631
41.6631
40.1706
40.1706
41.6631
41.6631
43.2111
43.2111
40.1706
40.1706
46.4818
46.4818
40.1706
40.1706
38.7315
38.7315
38.7315
38.7315
40.1706
40.1706
37.344
37.344
38.7315
38.7315
38.7315
38.7315
40.1706
40.1706
38.7315
38.7315
36.0062
36.0062
41.6631
41.6631
37.344
37.344
37.344
37.344
36.0062
36.0062
40.1706
40.1706
34.7163
34.7163
37.344
37.344
36.0062
36.0062
37.344
37.344
34.7163
34.7163
36.0062
36.0062
33.4726
33.4726
36.0062
36.0062
33.4726
33.4726
32.2735
32.2735
31.1173
31.1173
32.2735
32.2735
34.7163
34.7163
33.4726
33.4726
40.1706
40.1706
31.1173
31.1173
38.7315
38.7315
30.0026
30.0026
34.7163
34.7163
37.344
37.344
30.0026
30.0026
28.9278
28.9278
28.9278
28.9278
27.8914
27.8914
26.8923
26.8923
25
25
24.1044
24.1044
32.2735
32.2735
23.2409
23.2409
31.1173
31.1173
27.8914
27.8914
25.9289
25.9289
26.8923
26.8923
25.9289
25.9289
22.4083
22.4083
30.0026
30.0026
25.9289
25.9289
25
25
