# vtk DataFile Version 3.0
Tree
ASCII
DATASET POLYDATA
POINTS 1582 float
162774 225274 273.8
162774 225274 10273.8
141774 225774 23773.8
145774 214254 30497.8
142974 222318 25791
122774 207918 42773.8
144934 216673 29085.8
148774 205814 58773.8
128958 210525 42533.8
121774 200774 61325.8
124083 207967 43631.4
109594 198774 49773.8
126963 204687 55023.4
136774 198774 74025.8
151214 205637 52633.8
161878 192774 70773.8
122813 201023 61142.6
116226 192774 75773.8
112411 199923 49935.4
101774 189254 62773.8
118202 195249 71384.6
126774 193998 85773.8
160187 194930 70849
168026 185774 91773.8
161371 193421 70796.2
173782 174774 70773.8
116819 193516 74457
101774 185230 82773.8
122145 194673 78003.4
113774 190022 91773.8
102938 190387 59447.4
89573.8 176774 63773.8
126603 194568 84392.6
139774 195998 99773.8
167478 186286 87104.2
179230 171774 98773.8
170432 175981 69381
176002 157774 65773.8
104016 186172 80248.2
88773.8 175978 80773.8
166339 182191 67524.6
169026 166774 51773.8
118213 192585 88232.6
119774 194046 108774
173492 163166 65216.2
172002 150774 52773.8
91875.4 177162 79651.8
81533.8 164774 73773.8
115198 191435 91431
107774 190774 102226
139479 194985 97091.8
153774 194014 107774
175010 158144 65629.4
178058 140774 66773.8
173824 178449 93405.8
181774 159774 83661.8
177834 172458 98575
182774 159974 110774
87118.2 171463 76947.8
78773.8 163890 86773.8
83947.4 168585 80681.8
82773.8 174774 97573.8
110001 190972 98987.4
95773.8 185222 97773.8
118155 194342 106350
115774 196774 123594
117440 195072 111523
130774 195998 120774
108442 190833 101254
102774 193774 114750
129414 195748 118836
146774 195998 124774
83766.6 165550 74018.6
80329.8 149774 65773.8
177335 143364 65457.4
178774 125774 59577.8
167415 186496 90838.6
165970 188774 104774
162374 192337 75725.4
155078 193774 88773.8
177841 141551 66379
183998 130774 79773.8
179389 165377 86585
183998 152774 96773.8
181536 160553 109670
183998 147774 120774
178212 128595 58803.8
178002 120774 51773.8
100042 186947 98137.8
87773.8 185202 111774
80548.6 164073 84434.2
75561.8 150774 88773.8
82484.6 171488 93232.2
77773.8 166774 108794
182668 154675 114778
183998 158774 131774
141566 195923 122993
145774 195982 141774
116224 196764 122600
115774 199986 139774
77457 155827 87124.6
78773.8 144226 77773.8
182385 155225 92787.8
183998 138774 93773.8
167824 186814 100129
174774 181774 114394
79187 168188 104125
77673.8 151774 108774
178115 124997 55569.8
180774 128774 40061.8
143165 195945 130129
130774 198002 140774
79587.8 145660 78434.2
83561.8 132774 66773.8
183426 148641 118195
183998 132774 120774
146256 195654 124848
159074 193774 130774
183826 148034 120000
183386 139774 136774
183199 140744 132105
181202 130774 135774
183387 142931 128473
183998 148774 139774
114563 197989 135023
105998 193774 148774
76130.2 152290 88279
78161.8 141774 98773.8
78790.6 152633 107938
80365.8 140774 109774
183833 148456 137563
183998 157774 145774
172689 183286 110114
167774 189226 122774
90946.2 184633 110269
86773.8 177774 127322
143881 196235 139798
138774 197886 156774
115460 197327 128315
98773.8 193774 134882
182770 139909 135979
179774 136654 150774
183072 133782 120995
181182 122774 123774
102628 192335 112958
95773.8 191994 123774
77064.6 147453 93106.6
79773.8 132766 88773.8
181121 132066 134809
176774 120774 135958
109516 194077 147173
108774 190042 158774
179983 136353 146016
173774 126366 153774
107053 193865 148294
100774 184774 151962
83962.2 133257 68265
89533.8 119774 58773.8
153969 194162 130326
161982 190774 145774
183935 154233 142653
181774 150774 156794
88025.4 179831 122206
81773.8 165774 123042
86079.4 128133 64658.6
87601.8 129774 52773.8
139021 197605 150972
127774 200002 157774
79518.6 158781 108261
82773.8 148774 121958
138580 197787 156423
136774 197886 168774
85444.2 129671 65740.6
88361.8 116774 71773.8
87817.8 177983 126596
89669.8 171774 140774
182662 158035 121186
180062 170774 127774
80277.8 142700 108578
82773.8 131658 104774
181215 124342 122883
177774 112746 122774
82175 150076 117980
84773.8 138774 119958
108554 189721 156622
105774 179966 165774
175636 129362 151446
171774 117774 145998
88018.6 174317 131569
85681.8 163774 134774
174333 127265 153075
167774 125774 163990
82498.2 149373 120128
83553.8 156774 127774
176840 121587 134979
172042 110774 133774
82799.8 132765 104541
87773.8 118270 95773.8
102836 193753 133793
95609.8 186774 139774
179278 117036 121421
177946 107774 112774
89163 121051 58822.6
93545.8 112774 47773.8
102049 185549 151649
97773.8 172774 156802
179303 136654 150268
175774 137578 161774
89422.6 120157 58788.6
93657.8 106774 61773.8
108708 189945 158128
116774 187774 173322
181937 152548 154261
178774 156774 165970
81974.6 153053 66459.8
85449.8 142774 54773.8
170655 185908 119010
173258 183774 134774
87420.2 120431 95357.8
90773.8 113566 86773.8
83237 154553 125480
87553.8 151774 135774
137316 197856 165069
146862 191774 174774
84924.6 146063 55993.4
87545.8 142774 45773.8
129411 199328 155657
117774 199814 155774
173941 126635 153564
165318 117774 156774
89223.4 117766 70963
94773.8 105578 75773.8
145206 196058 141181
150774 192774 155954
179500 154455 162544
176050 150774 170774
85060.2 140215 119395
89509.8 127774 120774
114354 188425 168764
112774 177774 175970
168626 127091 163237
163322 128774 173774
86429.8 153587 133291
90317.8 157774 143774
142471 194572 170309
139774 194526 181774
172382 111536 133039
167774 101138 129774
87667.8 118918 95649
94349.8 110774 103774
106105 181033 163319
102774 168774 165886
183979 156711 144838
181978 167774 142774
175783 137842 160892
171774 139578 171774
90193.8 158114 142659
94317.8 163774 151774
178345 110553 115368
171418 99773.8 118774
178584 156291 165624
174774 161774 175978
103359 170177 164473
101058 159774 163774
174188 103429 116049
169930 92773.8 109774
176253 160695 172045
175814 167774 173774
112439 178382 173963
109774 167774 177038
172911 100232 114167
175774 98741.8 104774
90741.4 115172 99386.6
96773.8 105574 94773.8
173399 183166 133791
175994 179774 144774
167010 119109 155207
160774 110222 151774
87989.4 131148 119187
89773.8 120774 112886
140583 194539 178335
145978 188774 185774
165825 118175 156304
157270 116774 165774
176143 151628 170232
170066 149774 182774
93428.2 108751 72970.2
99037.8 97773.8 67773.8
151117 192734 154318
156774 189818 162774
164431 129019 172469
161014 133774 184774
93597.4 112173 103498
97997.8 109774 112774
84974.2 139782 119564
89773.8 136774 132902
171778 97398.2 112497
165538 91773.8 116774
94787.4 106459 75603.8
99773.8 100314 84773.8
88785.8 136387 127429
97457.8 124774 134774
170484 94161 110591
171774 90773.8 100882
174741 161730 175938
169998 164774 187774
97869.8 100038 67776.6
101514 92773.8 57773.8
183059 161800 143888
179990 169774 154774
97061.8 106605 96480.6
102774 99573.8 94773.8
110183 169098 175751
107554 156774 173774
170096 93189.8 110019
163366 85773.8 106774
94917.8 111453 106281
100774 103662 106774
160411 190917 145240
163774 188774 155170
171106 149154 179835
165774 141774 185970
89275.8 126615 117708
93737.8 118774 120774
109897 168171 176652
115774 166774 187250
161883 130569 178358
154774 128206 183774
112130 167640 180679
113022 159774 183774
171421 163861 184223
167774 155774 193890
131847 198245 140627
124774 200002 147774
175264 98947.8 104979
177226 97773.8 94773.8
170425 164500 186709
163774 173534 192774
94713.8 129399 133463
99537.8 128774 143774
180146 168881 152255
175190 178774 157774
102449 100356 94336.6
109774 92321.8 90773.8
98963 97858.6 64775.8
106774 87669.8 66773.8
155107 190078 161891
155774 186050 172774
107576 94731.8 91842.6
108302 91773.8 80773.8
93938.2 119491 120556
103774 108774 125134
109027 160247 175306
111506 150774 179774
171075 90988.2 102088
169266 85773.8 90773.8
99207.8 106608 107822
107574 100774 115774
169156 104257 130753
161774 99773.8 135990
100916 104296 107252
108390 95773.8 105774
176493 97342.2 96689.4
175774 92425.8 88773.8
164939 87521.8 106369
157774 79717.8 95773.8
105371 89279.4 65014.6
110690 81773.8 62773.8
164274 172110 190273
157958 178774 190774
98090.6 128961 140681
98341.8 136774 149774
166119 169827 189204
162774 179774 182970
113157 160331 183903
114526 152774 187774
163838 86298.2 106653
154890 81773.8 108774
111271 151565 178624
113502 142774 180774
98687.4 98453 67774.6
103774 94237.8 73773.8
175770 176523 157515
169774 181774 166570
107245 101334 115545
113570 97773.8 121774
145119 189952 182890
153334 182774 183774
102866 111083 125902
111774 104774 133110
92570.2 113991 51781
97533.8 100774 48773.8
178483 171785 154254
177814 170774 164774
97404.6 124903 134560
102370 116774 135774
175656 166843 172887
173842 174774 170774
110100 83807.8 64118.2
119774 77537.8 66773.8
98054.6 136290 147879
96773.8 148386 153774
170143 87041.8 92428.6
172042 84773.8 80773.8
112655 144871 179321
113026 135774 175774
160347 82167 96644.6
158774 79545.8 86773.8
98255.4 136629 149205
102774 139774 159330
114006 155645 186303
119774 155774 197082
171320 85635.8 85202.6
164774 78773.8 79893.8
113248 143403 180338
117774 134774 183322
111757 105428 131142
119582 100774 134774
116198 155694 190399
119562 146774 194774
87571.4 151998 135554
91773.8 146774 143250
171825 85032.2 82102.6
178774 89589.8 76773.8
112581 138538 175921
110774 132774 167958
171977 84851.4 81172.2
171978 78773.8 72773.8
118963 147922 193374
121774 137774 193214
117107 136824 183279
121738 132774 188774
114105 104032 132231
118174 106774 143774
163777 176790 184840
167774 178418 177774
113264 98035 120372
123582 92773.8 123774
164945 79020.6 79808.2
159774 73773.8 75037.8
117574 135389 183309
122414 126774 181774
102168 140167 158760
105774 144774 168866
116627 105732 139388
124578 101774 142774
111894 136347 172895
117774 125138 171774
117185 96035.8 121665
121774 89773.8 115934
117463 106295 141756
112774 113510 146774
119382 147118 194354
127774 141774 203254
84705.8 154109 129073
87509.8 144774 131774
122332 93215.4 122616
130650 87773.8 120774
123299 102283 141592
[...]
CELL_DATA 1581
SCALARS radius float
LOOKUP_TABLE default
100
100
100
100
96.4176
96.4176
92.9635
92.9635
89.6332
89.6332
86.4222
86.4222
86.4222
86.4222
89.6332
89.6332
83.3262
83.3262
80.3411
80.3411
80.3411
80.3411
86.4222
86.4222
83.3262
83.3262
77.463
77.463
77.463
77.463
74.6879
74.6879
74.6879
74.6879
80.3411
80.3411
72.0123
72.0123
74.6879
74.6879
77.463
77.463
74.6879
74.6879
69.4326
69.4326
72.0123
72.0123
72.0123
72.0123
66.9452
66.9452
66.9452
66.9452
77.463
77.463
74.6879
74.6879
69.4326
69.4326
66.9452
66.9452
66.9452
66.9452
72.0123
72.0123
69.4326
69.4326
64.547
64.547
66.9452
66.9452
66.9452
66.9452
62.2346
62.2346
77.463
77.463
83.3262
83.3262
60.0051
60.0051
72.0123
72.0123
72.0123
72.0123
57.8555
57.8555
64.547
64.547
64.547
64.547
64.547
64.547
69.4326
69.4326
64.547
64.547
66.9452
66.9452
62.2346
62.2346
66.9452
66.9452
74.6879
74.6879
62.2346
62.2346
55.7829
55.7829
62.2346
62.2346
60.0051
60.0051
66.9452
66.9452
62.2346
62.2346
64.547
64.547
60.0051
60.0051
62.2346
62.2346
62.2346
62.2346
60.0051
60.0051
57.8555
57.8555
60.0051
60.0051
69.4326
69.4326
60.0051
60.0051
60.0051
60.0051
64.547
64.547
57.8555
57.8555
64.547
64.547
57.8555
57.8555
57.8555
57.8555
57.8555
57.8555
60.0051
60.0051
55.7829
55.7829
57.8555
57.8555
57.8555
57.8555
57.8555
57.8555
57.8555
57.8555
55.7829
55.7829
53.7845
53.7845
57.8555
57.8555
60.0051
60.0051
55.7829
55.7829
55.7829
55.7829
53.7845
53.7845
66.9452
66.9452
55.7829
55.7829
62.2346
62.2346
57.8555
57.8555
57.8555
57.8555
53.7845
53.7845
48.2088
48.2088
51.8578
51.8578
55.7829
55.7829
53.7845
53.7845
53.7845
53.7845
60.0051
60.0051
60.0051
60.0051
50
50
55.7829
55.7829
53.7845
53.7845
48.2088
48.2088
55.7829
55.7829
51.8578
51.8578
60.0051
60.0051
66.9452
66.9452
51.8578
51.8578
53.7845
53.7845
51.8578
51.8578
57.8555
57.8555
55.7829
55.7829
50
50
53.7845
53.7845
57.8555
57.8555
50
50
55.7829
55.7829
53.7845
53.7845
50
50
50
50
48.2088
48.2088
51.8578
51.8578
50
50
51.8578
51.8578
55.7829
55.7829
50
50
48.2088
48.2088
57.8555
57.8555
48.2088
48.2088
50
50
55.7829
55.7829
46.4818
46.4818
51.8578
51.8578
53.7845
53.7845
48.2088
48.2088
60.0051
60.0051
48.2088
48.2088
53.7845
53.7845
46.4818
46.4818
46.4818
46.4818
48.2088
48.2088
50
50
55.7829
55.7829
46.4818
46.4818
46.4818
46.4818
53.7845
53.7845
51.8578
51.8578
48.2088
48.2088
51.8578
51.8578
50
50
44.8166
44.8166
48.2088
48.2088
53.7845
53.7845
46.4818
46.4818
50
50
48.2088
48.2088
44.8166
44.8166
51.8578
51.8578
44.8166
44.8166
51.8578
51.8578
48.2088
48.2088
43.2111
43.2111
46.4818
46.4818
41.6631
41.6631
57.8555
57.8555
51.8578
51.8578
40.1706
40.1706
50
50
51.8578
51.8578
44.8166
44.8166
46.4818
46.4818
53.7845
53.7845
43.2111
43.2111
50
50
48.2088
48.2088
48.2088
48.2088
43.2111
43.2111
50
50
41.6631
41.6631
50
50
46.4818
46.4818
43.2111
43.2111
37.344
37.344
48.2088
48.2088
38.7315
38.7315
44.8166
44.8166
44.8166
44.8166
46.4818
46.4818
46.4818
46.4818
48.2088
48.2088
41.6631
41.6631
44.8166
44.8166
48.2088
48.2088
46.4818
46.4818
50
50
48.2088
48.2088
44.8166
44.8166
41.6631
41.6631
44.8166
44.8166
46.4818
46.4818
44.8166
44.8166
44.8166
44.8166
43.2111
43.2111
43.2111
43.2111
44.8166
44.8166
43.2111
43.2111
46.4818
46.4818
40.1706
40.1706
48.2088
48.2088
43.2111
43.2111
43.2111
43.2111
41.6631
41.6631
38.7315
38.7315
41.6631
41.6631
44.8166
44.8166
37.344
37.344
40.1706
40.1706
43.2111
43.2111
40.1706
40.1706
41.6631
41.6631
43.2111
43.2111
41.6631
41.6631
38.7315
38.7315
41.6631
41.6631
37.344
37.344
51.8578
51.8578
37.344
37.344
41.6631
41.6631
40.1706
40.1706
36.0062
36.0062
38.7315
38.7315
34.7163
34.7163
37.344
37.344
34.7163
34.7163
37.344
37.344
36.0062
36.0062
36.0062
36.0062
33.4726
33.4726
33.4726
33.4726
32.2735
32.2735
33.4726
33.4726
40.1706
40.1706
32.2735
32.2735
31.1173
31.1173
38.7315
38.7315
37.344
37.344
36.0062
36.0062
92.9635
92.9635
89.6332
89.6332
89.6332
89.6332
80.3411
80.3411
77.463
77.463
86.4222
86.4222
83.3262
83.3262
83.3262
83.3262
83.3262
83.3262
80.3411
80.3411
80.3411
80.3411
83.3262
83.3262
80.3411
80.3411
77.463
77.463
77.463
77.463
74.6879
74.6879
74.6879
74.6879
74.6879
74.6879
72.0123
72.0123
72.0123
72.0123
80.3411
80.3411
72.0123
72.0123
77.463
77.463
69.4326
69.4326
69.4326
69.4326
74.6879
74.6879
69.4326
69.4326
69.4326
69.4326
72.0123
72.0123
69.4326
69.4326
69.4326
69.4326
72.0123
72.0123
69.4326
69.4326
66.9452
66.9452
69.4326
69.4326
62.2346
62.2346
64.547
64.547
64.547
64.547
64.547
64.547
69.4326
69.4326
64.547
64.547
66.9452
66.9452
72.0123
72.0123
62.2346
62.2346
62.2346
62.2346
60.0051
60.0051
64.547
64.547
60.0051
60.0051
66.9452
66.9452
62.2346
62.2346
57.8555
57.8555
72.0123
72.0123
69.4326
69.4326
62.2346
62.2346
55.7829
55.7829
66.9452
66.9452
74.6879
74.6879
64.547
64.547
64.547
64.547
72.0123
72.0123
64.547
64.547
57.8555
57.8555
62.2346
62.2346
62.2346
62.2346
60.0051
60.0051
62.2346
62.2346
72.0123
72.0123
60.0051
60.0051
77.463
77.463
64.547
64.547
62.2346
62.2346
64.547
64.547
64.547
64.547
60.0051
60.0051
62.2346
62.2346
60.0051
60.0051
57.8555
57.8555
69.4326
69.4326
60.0051
60.0051
53.7845
53.7845
57.8555
57.8555
55.7829
55.7829
60.0051
60.0051
55.7829
55.7829
55.7829
55.7829
53.7845
53.7845
60.0051
60.0051
57.8555
57.8555
57.8555
57.8555
55.7829
55.7829
50
50
57.8555
57.8555
51.8578
51.8578
55.7829
55.7829
62.2346
62.2346
62.2346
62.2346
53.7845
53.7845
55.7829
55.7829
53.7845
53.7845
64.547
64.547
60.0051
60.0051
48.2088
48.2088
57.8555
57.8555
48.2088
48.2088
55.7829
55.7829
55.7829
55.7829
62.2346
62.2346
55.7829
55.7829
62.2346
62.2346
55.7829
55.7829
62.2346
62.2346
55.7829
55.7829
60.0051
60.0051
57.8555
57.8555
60.0051
60.0051
57.8555
57.8555
55.7829
55.7829
53.7845
53.7845
55.7829
55.7829
53.7845
53.7845
62.2346
62.2346
55.7829
55.7829
51.8578
51.8578
53.7845
53.7845
51.8578
51.8578
51.8578
51.8578
51.8578
51.8578
53.7845
53.7845
53.7845
53.7845
50
50
57.8555
57.8555
57.8555
57.8555
51.8578
51.8578
48.2088
48.2088
48.2088
48.2088
46.4818
46.4818
60.0051
60.0051
55.7829
55.7829
50
50
44.8166
44.8166
53.7845
53.7845
55.7829
55.7829
50
50
50
50
44.8166
44.8166
50
50
51.8578
51.8578
44.8166
44.8166
51.8578
51.8578
53.7845
53.7845
46.4818
46.4818
51.8578
51.8578
43.2111
43.2111
57.8555
57.8555
51.8578
51.8578
46.4818
46.4818
57.8555
57.8555
48.2088
48.2088
51.8578
51.8578
48.2088
48.2088
50
50
44.8166
44.8166
50
50
48.2088
48.2088
50
50
50
50
48.2088
48.2088
46.4818
46.4818
57.8555
57.8555
44.8166
44.8166
44.8166
44.8166
46.4818
46.4818
48.2088
48.2088
50
50
48.2088
48.2088
44.8166
44.8166
43.2111
43.2111
51.8578
51.8578
50
50
46.4818
46.4818
48.2088
48.2088
44.8166
44.8166
50
50
53.7845
53.7845
43.2111
43.2111
46.4818
46.4818
46.4818
46.4818
40.1706
40.1706
55.7829
55.7829
43.2111
43.2111
48.2088
48.2088
48.2088
48.2088
43.2111
43.2111
46.4818
46.4818
41.6631
41.6631
44.8166
44.8166
44.8166
44.8166
43.2111
43.2111
53.7845
53.7845
41.6631
41.6631
50
50
46.4818
46.4818
46.4818
46.4818
40.1706
40.1706
44.8166
44.8166
44.8166
44.8166
43.2111
43.2111
51.8578
51.8578
40.1706
40.1706
50
50
43.2111
43.2111
46.4818
46.4818
44.8166
44.8166
38.7315
38.7315
50
50
43.2111
43.2111
44.8166
44.8166
43.2111
43.2111
41.6631
41.6631
44.8166
44.8166
46.4818
46.4818
41.6631
41.6631
48.2088
48.2088
41.6631
41.6631
40.1706
40.1706
48.2088
48.2088
41.6631
41.6631
36.0062
36.0062
46.4818
46.4818
40.1706
40.1706
38.7315
38.7315
41.6631
41.6631
46.4818
46.4818
44.8166
44.8166
40.1706
40.1706
41.6631
41.6631
43.2111
43.2111
38.7315
38.7315
44.8166
44.8166
38.7315
38.7315
40.1706
40.1706
40.1706
40.1706
36.0062
36.0062
38.7315
38.7315
36.0062
36.0062
48.2088
48.2088
41.6631
41.6631
37.344
37.344
40.1706
40.1706
38.7315
38.7315
43.2111
43.2111
40.1706
40.1706
40.1706
40.1706
41.6631
41.6631
38.7315
38.7315
44.8166
44.8166
38.7315
38.7315
46.4818
46.4818
36.0062
36.0062
32.2735
32.2735
44.8166
44.8166
44.8166
44.8166
34.7163
34.7163
34.7163
34.7163
40.1706
40.1706
43.2111
43.2111
31.1173
31.1173
37.344
37.344
40.1706
40.1706
38.7315
38.7315
38.7315
38.7315
38.7315
38.7315
86.4222
86.4222
77.463
77.463
83.3262
83.3262
83.3262
83.3262
74.6879
74.6879
72.0123
72.0123
80.3411
80.3411
69.4326
69.4326
77.463
77.463
77.463
77.463
74.6879
74.6879
77.463
77.463
72.0123
72.0123
69.4326
69.4326
77.463
77.463
72.0123
72.0123
66.9452
66.9452
66.9452
66.9452
77.463
77.463
80.3411
80.3411
66.9452
66.9452
72.0123
72.0123
72.0123
72.0123
66.9452
66.9452
74.6879
74.6879
64.547
64.547
64.547
64.547
72.0123
72.0123
74.6879
74.6879
66.9452
66.9452
69.4326
69.4326
69.4326
69.4326
66.9452
66.9452
64.547
64.547
64.547
64.547
62.2346
62.2346
66.9452
66.9452
69.4326
69.4326
64.547
64.547
60.0051
60.0051
64.547
64.547
62.2346
62.2346
62.2346
62.2346
57.8555
57.8555
72.0123
72.0123
60.0051
60.0051
53.7845
53.7845
60.0051
60.0051
62.2346
62.2346
60.0051
60.0051
69.4326
69.4326
55.7829
55.7829
69.4326
69.4326
60.0051
60.0051
60.0051
60.0051
55.7829
55.7829
62.2346
62.2346
57.8555
57.8555
60.0051
60.0051
53.7845
53.7845
60.0051
60.0051
74.6879
74.6879
57.8555
57.8555
60.0051
60.0051
51.8578
51.8578
62.2346
62.2346
57.8555
57.8555
62.2346
62.2346
62.2346
62.2346
74.6879
74.6879
66.9452
66.9452
62.2346
62.2346
57.8555
57.8555
62.2346
62.2346
64.547
64.547
53.7845
53.7845
55.7829
55.7829
53.7845
53.7845
53.7845
53.7845
55.7829
55.7829
51.8578
51.8578
60.0051
60.0051
57.8555
57.8555
62.2346
62.2346
55.7829
55.7829
50
50
57.8555
57.8555
64.547
64.547
53.7845
53.7845
60.0051
60.0051
53.7845
53.7845
57.8555
57.8555
57.8555
57.8555
64.547
64.547
53.7845
53.7845
55.7829
55.7829
55.7829
55.7829
55.7829
55.7829
60.0051
60.0051
55.7829
55.7829
64.547
64.547
53.7845
53.7845
55.7829
55.7829
55.7829
55.7829
53.7845
53.7845
57.8555
57.8555
53.7845
53.7845
51.8578
51.8578
51.8578
51.8578
53.7845
53.7845
50
50
53.7845
53.7845
55.7829
55.7829
51.8578
51.8578
55.7829
55.7829
51.8578
51.8578
64.547
64.547
50
50
55.7829
55.7829
48.2088
48.2088
53.7845
53.7845
51.8578
51.8578
50
50
53.7845
53.7845
60.0051
60.0051
51.8578
51.8578
51.8578
51.8578
53.7845
53.7845
48.2088
48.2088
50
50
100
96.4176
96.4176
89.6332
89.6332
86.4222
86.4222
83.3262
83.3262
80.3411
80.3411
92.9635
92.9635
77.463
77.463
74.6879
74.6879
72.0123
72.0123
72.0123
72.0123
69.4326
69.4326
69.4326
69.4326
69.4326
69.4326
66.9452
66.9452
66.9452
66.9452
62.2346
62.2346
64.547
64.547
60.0051
60.0051
64.547
64.547
62.2346
62.2346
60.0051
60.0051
57.8555
57.8555
57.8555
57.8555
60.0051
60.0051
57.8555
57.8555
55.7829
55.7829
55.7829
55.7829
55.7829
55.7829
55.7829
55.7829
53.7845
53.7845
53.7845
53.7845
53.7845
53.7845
66.9452
66.9452
51.8578
51.8578
51.8578
51.8578
50
50
62.2346
62.2346
53.7845
53.7845
51.8578
51.8578
50
50
51.8578
51.8578
60.0051
60.0051
50
50
48.2088
48.2088
51.8578
51.8578
57.8555
57.8555
55.7829
55.7829
46.4818
46.4818
48.2088
48.2088
48.2088
48.2088
50
50
44.8166
44.8166
46.4818
46.4818
46.4818
46.4818
50
50
43.2111
43.2111
53.7845
53.7845
44.8166
44.8166
46.4818
46.4818
43.2111
43.2111
41.6631
41.6631
41.6631
41.6631
48.2088
48.2088
46.4818
46.4818
44.8166
44.8166
44.8166
44.8166
44.8166
44.8166
40.1706
40.1706
43.2111
43.2111
41.6631
41.6631
41.6631
41.6631
38.7315
38.7315
40.1706
40.1706
37.344
37.344
43.2111
43.2111
41.6631
41.6631
40.1706
40.1706
40.1706
40.1706
44.8166
44.8166
38.7315
38.7315
38.7315
38.7315
37.344
37.344
38.7315
38.7315
36.0062
36.0062
37.344
37.344
36.0062
36.0062
34.7163
34.7163
33.4726
33.4726
40.1706
40.1706
32.2735
32.2735
37.344
37.344
34.7163
34.7163
36.0062
36.0062
31.1173
31.1173
37.344
37.344
34.7163
34.7163
36.0062
36.0062
36.0062
36.0062
34.7163
34.7163
34.7163
34.7163
33.4726
33.4726
32.2735
32.2735
31.1173
31.1173
34.7163
34.7163
30.0026
30.0026
28.9278
28.9278
34.7163
34.7163
30.0026
30.0026
33.4726
33.4726
36.0062
36.0062
33.4726
33.4726
33.4726
33.4726
28.9278
28.9278
32.2735
32.2735
27.8914
27.8914
28.9278
28.9278
27.8914
27.8914
32.2735
32.2735
27.8914
27.8914
26.8923
26.8923
34.7163
34.7163
26.8923
26.8923
31.1173
31.1173
33.4726
33.4726
26.8923
26.8923
25.9289
25.9289
25.9289
25.9289
25.9289
25.9289
25
25
24.1044
24.1044
25
25
30.0026
30.0026
28.9278
28.9278
23.2409
23.2409
22.4083
22.4083
24.1044
24.1044
23.2409
23.2409
23.2409
23.2409
22.4083
22.4083
