# vtk DataFile Version 3.0
Tree
ASCII
DATASET POLYDATA
POINTS 1582 float
162774 225274 273.8
162774 225274 10273.8
141774 225774 23773.8
138774 213262 31773.8
139364 217915 31273.8
133774 208070 52773.8
136345 212599 42883.8
152774 203970 56773.8
137251 214193 39401
112774 201930 45773.8
122075 206590 43352.2
117774 196774 67321.8
119064 199719 60131
137774 198774 75297.8
149738 204525 55123.4
162774 191298 71773.8
119967 201780 55097.4
102774 189998 60773.8
158689 195104 70925.8
163082 189774 87773.8
117172 197055 65817.8
108774 188054 82773.8
129167 199209 68321
125774 193978 88773.8
161548 192440 71519.4
173990 173774 71773.8
163424 189813 84065
173998 179774 93773.8
127063 195965 81001.8
143774 195998 93773.8
169243 179187 69864.6
171186 165774 58773.8
172566 175398 71201
177870 172774 83773.8
105316 191114 60921
87773.8 175246 72773.8
125665 194676 88013.4
121774 193998 102774
170603 169798 62101
176774 153170 67773.8
137505 195987 91543.4
140774 195998 109774
171000 165866 59490.6
171982 151774 51773.8
172091 180832 92692.2
180774 167974 104774
93913.4 181013 71097.4
87773.8 176774 90429.8
122941 194201 98345.8
107774 190550 101774
174429 159489 65618.2
180774 157774 81581.8
88772.6 175239 72467
79557.8 160774 74773.8
121763 194398 102121
116774 195998 116774
163185 189785 86661
157018 193774 99773.8
177347 158700 72961.4
182002 143774 78773.8
179730 148792 74874.6
180070 133774 68773.8
178915 167607 102404
183998 155774 109774
83059.4 166270 73897.4
81545.8 155774 61773.8
180847 163111 105204
182530 163774 121774
86569.8 175823 86781.4
79497.8 170774 98773.8
179489 138610 69063.4
176774 130774 55589.8
140848 195994 109260
144774 195998 128774
142340 195995 116675
129774 197774 127602
87412.6 176489 89335.4
90773.8 185774 104742
118090 196047 116005
115774 198002 130774
158868 192577 95839.8
165774 189854 113774
141893 195995 93104.6
151774 194014 86773.8
143654 195997 123209
154774 194014 126774
80608.2 162423 74511
75773.8 150526 85773.8
181320 145279 77604.2
183998 144774 95773.8
177655 131350 58133.4
177834 119774 47773.8
179896 135225 68860.6
183998 125774 80773.8
144522 195995 128646
145774 195982 141774
182391 157836 109683
183998 143774 125774
183307 148840 117595
183998 136774 116774
183569 146915 120703
183998 155774 135774
81999.8 158923 65411
83545.8 134774 65773.8
82296.2 170145 95017
77765.8 150774 108774
79320.6 156994 102699
77545.8 146774 99773.8
80927.4 164095 98550.6
79545.8 164774 113774
78027.4 151322 83289.8
78297.8 139774 89773.8
165340 189178 109632
175994 179774 118774
79960.2 164570 109207
83773.8 178774 118898
177709 127877 55025.4
184774 130774 37969.8
115580 197230 129906
111774 198038 148774
183294 143920 124462
180774 131578 137774
153311 193987 125951
165774 189994 127774
84513.4 176805 115762
90773.8 187974 118774
114438 197472 135567
101998 193774 140774
84290.2 138049 64006.6
87529.8 125774 59773.8
144498 196236 140189
139074 197774 155774
112573 197868 144812
104774 190774 151966
109711 196067 137545
100490 195774 130774
181731 136268 132715
181874 140774 147774
182325 139175 129579
181774 125774 126006
83995.8 178183 117957
85773.8 173894 129774
181831 139422 143256
176774 131774 153166
157050 192789 126498
163018 191774 141774
181861 140368 146419
182002 154774 152774
140701 197313 151099
130774 199882 152774
78767 142136 86804.2
82325.8 127774 84773.8
181783 128525 125818
180774 119582 117774
112014 197987 147585
114774 195774 160886
181777 126599 125949
175774 118290 136774
78078.2 149840 100651
81597.8 136774 109774
176125 132000 151435
170774 125574 157774
139451 197591 155443
136774 197886 167774
86557.8 129457 61043.8
89477.8 116774 69773.8
177901 133446 148060
174542 123774 147774
78232.2 152640 106951
83021.8 149774 123774
181499 165298 118431
180774 169974 128774
87596.2 125972 60141.4
91545.8 113774 57773.8
106740 191149 151444
103774 179774 162034
80689 134380 85707.8
82773.8 127774 95161.8
85240.2 175181 126229
85481.8 160774 130774
145391 196058 141299
154026 192774 148774
83836.2 145121 62785.4
86773.8 136378 51773.8
104312 194462 139805
92773.8 183970 135774
179015 122777 130929
175182 110774 127774
85981.4 173796 129222
89505.8 167774 140774
176332 114375 128720
176774 108774 117954
87549.8 125833 59884.2
91537.8 121774 45773.8
104901 184097 158009
97617.8 174774 154774
181642 149732 152229
179782 154774 164774
114075 195251 158819
115106 187774 171774
174361 125405 148441
166774 116774 151986
82148.2 129756 92325.8
89029.8 115774 93773.8
114564 195617 160266
123774 197774 167970
172515 128785 156476
166774 128774 167974
90615.4 117457 57062.6
94773.8 109590 46773.8
163869 189961 128307
173978 182774 134774
176579 131841 152647
176086 140774 162774
81226.2 140022 108851
85729.8 134774 120774
138057 197511 165988
140774 195774 178798
83014.6 128085 94946.2
86773.8 122774 103954
103953 180093 160547
101590 168774 163774
138810 197554 160294
149774 190774 169166
87539 118849 92262.6
91653.8 110774 85773.8
148056 194885 145203
147774 194014 154774
175944 118747 134820
167034 107774 140774
91210.6 111903 85610.2
94773.8 105578 77773.8
114585 187181 169329
114774 179774 177366
168955 128778 163605
160446 119774 165774
91266.6 114879 57560.6
96317.8 101774 63773.8
139959 196295 174955
147310 189774 177774
175957 109054 120577
172042 96773.8 109774
179535 155400 162775
176774 162774 171970
85359.8 134931 118281
91773.8 125774 125966
183779 155485 135183
183774 161202 144774
175615 138195 161299
171774 139578 171774
88582.6 116696 93320.6
95453.8 110774 104774
173022 182539 134342
179230 175774 138774
175527 111854 128058
166774 99773.8 129130
179708 154962 164174
173966 150774 175774
105363 190887 151809
98341.8 185774 146774
167446 108727 139345
160870 101774 140774
166732 128776 167657
159774 128774 179130
91584.6 113541 96896.2
96773.8 105578 96773.8
113993 181419 173831
109774 168774 176802
167195 117165 150950
161774 110774 151326
94293 111604 102411
92773.8 115578 109774
147859 194275 151903
156774 190042 159774
176817 160694 171561
173774 163774 181018
102673 170710 163770
104774 160774 169970
183249 160998 143024
180014 170774 150774
95377.4 107901 95836.6
99773.8 102266 89773.8
170276 184765 132531
171978 184774 145774
161809 121225 164656
153774 112774 161974
92763.8 115445 108486
89773.8 122294 114774
169092 102475 127811
166450 95773.8 121774
96570.6 102679 62282.6
101550 93773.8 63773.8
173529 101440 113879
177774 101774 102006
174629 152394 175221
169774 151774 187058
90229 129259 124867
96773.8 127774 137326
175821 101621 107467
173418 93773.8 100774
92769.4 115517 109181
100314 107774 115774
153779 192924 148262
163774 189774 152006
166642 96494.6 121949
163362 88773.8 113774
173330 163942 179967
167842 168774 190774
89540.6 168581 139877
93657.8 163774 150774
164305 90298.2 114496
163774 84773.8 103166
95105.4 111023 104065
101774 102522 106774
111377 173579 175673
115774 167774 187062
161513 129537 177242
158774 134218 187774
95678.6 127195 134165
101574 120774 138774
171231 151960 183507
165774 143578 187774
99143.4 103472 92521
108774 93573.8 90773.8
105047 162897 169696
110774 156774 179970
179696 170166 149694
175182 179774 155774
170439 167289 184562
166402 175774 185774
104856 161411 169888
106774 149774 171954
173167 94259.8 101236
169774 86541.8 94773.8
105885 96543.4 91297.8
107774 92293.8 80773.8
149114 190756 168108
155774 186050 172774
169703 151729 186747
163958 150774 197774
91310.2 126819 125636
96537.8 115774 122774
166976 100778 129107
159774 97105.8 133774
99932.2 108291 113664
107574 100774 115774
100056 96445.4 63326.6
103590 87773.8 52773.8
105347 102678 114195
110774 95581.8 109774
101102 94575.4 63639.4
108774 87573.8 69773.8
173343 93919.4 100912
177222 95773.8 89773.8
100199 107929 115141
106774 107574 127774
96445.4 127600 136377
101006 131774 149774
162840 86088.6 106797
155774 80353.8 100774
106472 89674.2 67933.4
112774 81517.8 63773.8
167613 173229 185410
159774 175774 194578
97550.2 130291 141310
95541.8 138774 145774
176058 95217.4 93115.4
173774 87773.8 84569.8
97919 124755 135916
100774 115774 131118
109647 156887 177756
113774 145774 183974
169710 87924.6 95818.6
162774 81533.8 89773.8
93526.2 111950 49860.6
97485.8 100774 51773.8
176145 176551 155073
170774 180774 165970
161537 175480 190977
152774 180038 191774
111876 150886 181114
111538 140774 175774
105979 106858 124673
113774 101774 129990
110436 156808 179306
115774 155774 191026
110883 83964.6 65021.8
116774 80373.8 69773.8
172385 179507 162701
173774 174774 170970
112639 81877.4 64257
119774 73773.8 61965.8
96557 136925 145538
97773.8 146774 155250
164855 83451 91587.4
166774 80773.8 81949.8
113812 146174 183593
117706 138774 186774
108895 105473 127600
111774 106774 135326
115613 154902 189909
119774 151774 197082
112376 102665 128398
118774 96773.8 125962
170767 180401 165517
165774 182002 172774
97019.4 140667 149229
93485.8 150774 146774
175273 90449 86329.4
178774 88273.8 75773.8
97366.6 143476 151998
103774 140774 162962
167109 81356.6 83547.4
172870 79773.8 74773.8
112437 141490 177203
114362 131774 174774
166874 80948.6 82429
161774 75773.8 77181.8
111977 106143 134167
118774 104774 141946
113630 135466 175697
109774 131774 165970
171141 80248.6 77405.8
167774 73609.8 70773.8
118525 152712 194930
124002 140774 197774
117439 97664.2 125753
121578 91773.8 119774
117364 139573 185775
122774 130214 185774
94828.6 146933 147707
88773.8 148774 137890
116191 105294 138990
122774 100214 137774
114927 105549 137543
114774 110774 145970
166765 175010 185665
161318 180774 181774
114142 132881 175051
120514 125774 176774
93012.2 147485 144761
91585.8 138774 137774
118577 104699 140974
126774 102342 145774
120336 93541 121568
129774 89773.8 123970
121205 92303.8 120312
128226 86773.8 113774
105431 157919 170507
102122 150774 163774
101227 121747 138893
108230 117774 146774
124298 103647 145214
129582 105774 153774
103327 120555 141258
108242 112774 139774
128202 90231 122874
136746 85773.8 120774
133300 87270.2 120417
138378 82773.8 111774
[...]
CELL_DATA 1581
SCALARS radius float
LOOKUP_TABLE default
100
100
100
100
96.4176
96.4176
89.6332
89.6332
92.9635
92.9635
89.6332
89.6332
83.3262
83.3262
86.4222
86.4222
86.4222
86.4222
83.3262
83.3262
77.463
77.463
80.3411
80.3411
80.3411
80.3411
80.3411
80.3411
77.463
77.463
74.6879
74.6879
69.4326
69.4326
83.3262
83.3262
74.6879
74.6879
72.0123
72.0123
74.6879
74.6879
69.4326
69.4326
77.463
77.463
80.3411
80.3411
72.0123
72.0123
69.4326
69.4326
77.463
77.463
69.4326
69.4326
77.463
77.463
66.9452
66.9452
64.547
64.547
74.6879
74.6879
74.6879
74.6879
72.0123
72.0123
77.463
77.463
62.2346
62.2346
72.0123
72.0123
69.4326
69.4326
74.6879
74.6879
66.9452
66.9452
72.0123
72.0123
72.0123
72.0123
66.9452
66.9452
72.0123
72.0123
62.2346
62.2346
60.0051
60.0051
60.0051
60.0051
64.547
64.547
69.4326
69.4326
66.9452
66.9452
64.547
64.547
72.0123
72.0123
74.6879
74.6879
69.4326
69.4326
72.0123
72.0123
69.4326
69.4326
62.2346
62.2346
69.4326
69.4326
55.7829
55.7829
64.547
64.547
62.2346
62.2346
64.547
64.547
66.9452
66.9452
62.2346
62.2346
66.9452
66.9452
62.2346
62.2346
60.0051
60.0051
60.0051
60.0051
57.8555
57.8555
60.0051
60.0051
64.547
64.547
55.7829
55.7829
62.2346
62.2346
53.7845
53.7845
60.0051
60.0051
66.9452
66.9452
57.8555
57.8555
57.8555
57.8555
55.7829
55.7829
66.9452
66.9452
51.8578
51.8578
57.8555
57.8555
64.547
64.547
53.7845
53.7845
66.9452
66.9452
66.9452
66.9452
62.2346
62.2346
57.8555
57.8555
64.547
64.547
62.2346
62.2346
60.0051
60.0051
69.4326
69.4326
55.7829
55.7829
53.7845
53.7845
60.0051
60.0051
51.8578
51.8578
60.0051
60.0051
55.7829
55.7829
51.8578
51.8578
53.7845
53.7845
51.8578
51.8578
62.2346
62.2346
51.8578
51.8578
50
50
60.0051
60.0051
60.0051
60.0051
50
50
64.547
64.547
51.8578
51.8578
60.0051
60.0051
53.7845
53.7845
53.7845
53.7845
60.0051
60.0051
57.8555
57.8555
51.8578
51.8578
57.8555
57.8555
51.8578
51.8578
48.2088
48.2088
57.8555
57.8555
48.2088
48.2088
48.2088
48.2088
48.2088
48.2088
62.2346
62.2346
57.8555
57.8555
48.2088
48.2088
57.8555
57.8555
55.7829
55.7829
50
50
46.4818
46.4818
55.7829
55.7829
48.2088
48.2088
46.4818
46.4818
55.7829
55.7829
50
50
48.2088
48.2088
53.7845
53.7845
55.7829
55.7829
46.4818
46.4818
51.8578
51.8578
55.7829
55.7829
53.7845
53.7845
57.8555
57.8555
46.4818
46.4818
51.8578
51.8578
48.2088
48.2088
55.7829
55.7829
46.4818
46.4818
44.8166
44.8166
60.0051
60.0051
44.8166
44.8166
50
50
55.7829
55.7829
44.8166
44.8166
44.8166
44.8166
57.8555
57.8555
43.2111
43.2111
51.8578
51.8578
46.4818
46.4818
43.2111
43.2111
57.8555
57.8555
41.6631
41.6631
51.8578
51.8578
50
50
53.7845
53.7845
43.2111
43.2111
48.2088
48.2088
43.2111
43.2111
50
50
51.8578
51.8578
40.1706
40.1706
57.8555
57.8555
46.4818
46.4818
48.2088
48.2088
53.7845
53.7845
46.4818
46.4818
51.8578
51.8578
41.6631
41.6631
46.4818
46.4818
53.7845
53.7845
40.1706
40.1706
50
50
41.6631
41.6631
51.8578
51.8578
40.1706
40.1706
55.7829
55.7829
48.2088
48.2088
41.6631
41.6631
57.8555
57.8555
50
50
40.1706
40.1706
46.4818
46.4818
44.8166
44.8166
46.4818
46.4818
48.2088
48.2088
48.2088
48.2088
46.4818
46.4818
50
50
40.1706
40.1706
44.8166
44.8166
43.2111
43.2111
43.2111
43.2111
41.6631
41.6631
46.4818
46.4818
48.2088
48.2088
38.7315
38.7315
46.4818
46.4818
38.7315
38.7315
44.8166
44.8166
37.344
37.344
41.6631
41.6631
43.2111
43.2111
37.344
37.344
41.6631
41.6631
40.1706
40.1706
41.6631
41.6631
46.4818
46.4818
38.7315
38.7315
40.1706
40.1706
40.1706
40.1706
41.6631
41.6631
44.8166
44.8166
37.344
37.344
38.7315
38.7315
37.344
37.344
46.4818
46.4818
53.7845
53.7845
36.0062
36.0062
51.8578
51.8578
37.344
37.344
36.0062
36.0062
50
50
33.4726
33.4726
34.7163
34.7163
33.4726
33.4726
44.8166
44.8166
48.2088
48.2088
33.4726
33.4726
32.2735
32.2735
36.0062
36.0062
37.344
37.344
31.1173
31.1173
46.4818
46.4818
40.1706
40.1706
44.8166
44.8166
38.7315
38.7315
89.6332
89.6332
69.4326
69.4326
86.4222
86.4222
86.4222
86.4222
80.3411
80.3411
62.2346
62.2346
60.0051
60.0051
64.547
64.547
83.3262
83.3262
66.9452
66.9452
74.6879
74.6879
77.463
77.463
83.3262
83.3262
66.9452
66.9452
80.3411
80.3411
80.3411
80.3411
72.0123
72.0123
74.6879
74.6879
80.3411
80.3411
77.463
77.463
72.0123
72.0123
69.4326
69.4326
77.463
77.463
66.9452
66.9452
69.4326
69.4326
69.4326
69.4326
72.0123
72.0123
72.0123
72.0123
66.9452
66.9452
74.6879
74.6879
66.9452
66.9452
72.0123
72.0123
66.9452
66.9452
69.4326
69.4326
69.4326
69.4326
64.547
64.547
66.9452
66.9452
66.9452
66.9452
64.547
64.547
64.547
64.547
72.0123
72.0123
69.4326
69.4326
74.6879
74.6879
62.2346
62.2346
66.9452
66.9452
62.2346
62.2346
72.0123
72.0123
60.0051
60.0051
64.547
64.547
64.547
64.547
69.4326
69.4326
60.0051
60.0051
64.547
64.547
57.8555
57.8555
62.2346
62.2346
72.0123
72.0123
69.4326
69.4326
62.2346
62.2346
69.4326
69.4326
60.0051
60.0051
66.9452
66.9452
66.9452
66.9452
69.4326
69.4326
55.7829
55.7829
62.2346
62.2346
64.547
64.547
55.7829
55.7829
66.9452
66.9452
64.547
64.547
60.0051
60.0051
57.8555
57.8555
69.4326
69.4326
66.9452
66.9452
62.2346
62.2346
69.4326
69.4326
64.547
64.547
64.547
64.547
66.9452
66.9452
64.547
64.547
57.8555
57.8555
66.9452
66.9452
62.2346
62.2346
57.8555
57.8555
60.0051
60.0051
62.2346
62.2346
60.0051
60.0051
60.0051
60.0051
62.2346
62.2346
62.2346
62.2346
51.8578
51.8578
60.0051
60.0051
55.7829
55.7829
57.8555
57.8555
64.547
64.547
69.4326
69.4326
57.8555
57.8555
55.7829
55.7829
57.8555
57.8555
64.547
64.547
50
50
62.2346
62.2346
64.547
64.547
62.2346
62.2346
55.7829
55.7829
57.8555
57.8555
64.547
64.547
64.547
64.547
62.2346
62.2346
53.7845
53.7845
53.7845
53.7845
62.2346
62.2346
57.8555
57.8555
64.547
64.547
60.0051
60.0051
64.547
64.547
57.8555
57.8555
60.0051
60.0051
55.7829
55.7829
57.8555
57.8555
48.2088
48.2088
57.8555
57.8555
51.8578
51.8578
60.0051
60.0051
53.7845
53.7845
57.8555
57.8555
57.8555
57.8555
50
50
62.2346
62.2346
55.7829
55.7829
53.7845
53.7845
57.8555
57.8555
51.8578
51.8578
50
50
62.2346
62.2346
55.7829
55.7829
46.4818
46.4818
55.7829
55.7829
50
50
48.2088
48.2088
60.0051
60.0051
57.8555
57.8555
57.8555
57.8555
50
50
57.8555
57.8555
55.7829
55.7829
62.2346
62.2346
50
50
53.7845
53.7845
51.8578
51.8578
60.0051
60.0051
53.7845
53.7845
50
50
66.9452
66.9452
57.8555
57.8555
51.8578
51.8578
55.7829
55.7829
55.7829
55.7829
50
50
51.8578
51.8578
55.7829
55.7829
50
50
44.8166
44.8166
55.7829
55.7829
50
50
44.8166
44.8166
51.8578
51.8578
46.4818
46.4818
46.4818
46.4818
55.7829
55.7829
46.4818
46.4818
43.2111
43.2111
48.2088
48.2088
50
50
44.8166
44.8166
48.2088
48.2088
44.8166
44.8166
46.4818
46.4818
55.7829
55.7829
48.2088
48.2088
44.8166
44.8166
41.6631
41.6631
44.8166
44.8166
48.2088
48.2088
44.8166
44.8166
57.8555
57.8555
53.7845
53.7845
41.6631
41.6631
53.7845
53.7845
53.7845
53.7845
43.2111
43.2111
44.8166
44.8166
40.1706
40.1706
50
50
55.7829
55.7829
43.2111
43.2111
50
50
43.2111
43.2111
55.7829
55.7829
44.8166
44.8166
53.7845
53.7845
43.2111
43.2111
43.2111
43.2111
50
50
41.6631
41.6631
51.8578
51.8578
53.7845
53.7845
38.7315
38.7315
44.8166
44.8166
38.7315
38.7315
55.7829
55.7829
37.344
37.344
48.2088
48.2088
48.2088
48.2088
46.4818
46.4818
44.8166
44.8166
51.8578
51.8578
53.7845
53.7845
40.1706
40.1706
55.7829
55.7829
37.344
37.344
44.8166
44.8166
41.6631
41.6631
50
50
51.8578
51.8578
46.4818
46.4818
50
50
38.7315
38.7315
37.344
37.344
44.8166
44.8166
38.7315
38.7315
43.2111
43.2111
43.2111
43.2111
51.8578
51.8578
48.2088
48.2088
46.4818
46.4818
43.2111
43.2111
44.8166
44.8166
38.7315
38.7315
44.8166
44.8166
41.6631
41.6631
44.8166
44.8166
40.1706
40.1706
41.6631
41.6631
40.1706
40.1706
40.1706
40.1706
44.8166
44.8166
36.0062
36.0062
43.2111
43.2111
37.344
37.344
38.7315
38.7315
51.8578
51.8578
38.7315
38.7315
37.344
37.344
38.7315
38.7315
37.344
37.344
34.7163
34.7163
33.4726
33.4726
34.7163
34.7163
36.0062
36.0062
32.2735
32.2735
53.7845
53.7845
48.2088
48.2088
32.2735
32.2735
46.4818
46.4818
34.7163
34.7163
43.2111
43.2111
34.7163
34.7163
33.4726
33.4726
44.8166
44.8166
34.7163
34.7163
30.0026
30.0026
43.2111
43.2111
37.344
37.344
92.9635
92.9635
83.3262
83.3262
83.3262
83.3262
60.0051
60.0051
77.463
77.463
62.2346
62.2346
74.6879
74.6879
86.4222
86.4222
57.8555
57.8555
55.7829
55.7829
64.547
64.547
77.463
77.463
62.2346
62.2346
80.3411
80.3411
74.6879
74.6879
72.0123
72.0123
74.6879
74.6879
77.463
77.463
74.6879
74.6879
77.463
77.463
74.6879
74.6879
69.4326
69.4326
72.0123
72.0123
72.0123
72.0123
74.6879
74.6879
62.2346
62.2346
69.4326
69.4326
72.0123
72.0123
69.4326
69.4326
64.547
64.547
66.9452
66.9452
66.9452
66.9452
64.547
64.547
64.547
64.547
69.4326
69.4326
64.547
64.547
64.547
64.547
62.2346
62.2346
53.7845
53.7845
66.9452
66.9452
60.0051
60.0051
64.547
64.547
66.9452
66.9452
57.8555
57.8555
64.547
64.547
72.0123
72.0123
64.547
64.547
57.8555
57.8555
60.0051
60.0051
69.4326
69.4326
74.6879
74.6879
55.7829
55.7829
62.2346
62.2346
62.2346
62.2346
62.2346
62.2346
60.0051
60.0051
60.0051
60.0051
53.7845
53.7845
57.8555
57.8555
57.8555
57.8555
62.2346
62.2346
62.2346
62.2346
64.547
64.547
69.4326
69.4326
64.547
64.547
64.547
64.547
64.547
64.547
66.9452
66.9452
62.2346
62.2346
62.2346
62.2346
57.8555
57.8555
66.9452
66.9452
53.7845
53.7845
64.547
64.547
60.0051
60.0051
62.2346
62.2346
60.0051
60.0051
60.0051
60.0051
60.0051
60.0051
66.9452
66.9452
55.7829
55.7829
64.547
64.547
51.8578
51.8578
57.8555
57.8555
62.2346
62.2346
57.8555
57.8555
57.8555
57.8555
53.7845
53.7845
66.9452
66.9452
55.7829
55.7829
50
50
64.547
64.547
55.7829
55.7829
60.0051
60.0051
55.7829
55.7829
55.7829
55.7829
64.547
64.547
53.7845
53.7845
53.7845
53.7845
57.8555
57.8555
60.0051
60.0051
55.7829
55.7829
62.2346
62.2346
55.7829
55.7829
60.0051
60.0051
50
50
62.2346
62.2346
66.9452
66.9452
51.8578
51.8578
57.8555
57.8555
60.0051
60.0051
53.7845
53.7845
60.0051
60.0051
53.7845
53.7845
60.0051
60.0051
55.7829
55.7829
62.2346
62.2346
55.7829
55.7829
62.2346
62.2346
51.8578
51.8578
53.7845
53.7845
53.7845
53.7845
60.0051
60.0051
48.2088
48.2088
50
50
51.8578
51.8578
53.7845
53.7845
50
50
62.2346
62.2346
50
50
55.7829
55.7829
53.7845
53.7845
46.4818
46.4818
100
96.4176
96.4176
92.9635
92.9635
86.4222
86.4222
83.3262
83.3262
80.3411
80.3411
89.6332
89.6332
86.4222
86.4222
77.463
77.463
74.6879
74.6879
83.3262
83.3262
72.0123
72.0123
69.4326
69.4326
80.3411
80.3411
69.4326
69.4326
66.9452
66.9452
77.463
77.463
74.6879
74.6879
64.547
64.547
62.2346
62.2346
72.0123
72.0123
69.4326
69.4326
60.0051
60.0051
69.4326
69.4326
66.9452
66.9452
57.8555
57.8555
64.547
64.547
72.0123
72.0123
55.7829
55.7829
69.4326
69.4326
62.2346
62.2346
60.0051
60.0051
66.9452
66.9452
60.0051
60.0051
66.9452
66.9452
57.8555
57.8555
53.7845
53.7845
74.6879
74.6879
64.547
64.547
64.547
64.547
62.2346
62.2346
55.7829
55.7829
57.8555
57.8555
51.8578
51.8578
72.0123
72.0123
53.7845
53.7845
51.8578
51.8578
69.4326
69.4326
55.7829
55.7829
50
50
53.7845
53.7845
53.7845
53.7845
62.2346
62.2346
51.8578
51.8578
50
50
60.0051
60.0051
48.2088
48.2088
57.8555
57.8555
53.7845
53.7845
50
50
48.2088
48.2088
46.4818
46.4818
50
50
48.2088
48.2088
46.4818
46.4818
46.4818
46.4818
44.8166
44.8166
43.2111
43.2111
51.8578
51.8578
48.2088
48.2088
44.8166
44.8166
46.4818
46.4818
44.8166
44.8166
43.2111
43.2111
44.8166
44.8166
43.2111
43.2111
43.2111
43.2111
41.6631
41.6631
40.1706
40.1706
41.6631
41.6631
41.6631
41.6631
43.2111
43.2111
38.7315
38.7315
41.6631
41.6631
43.2111
43.2111
37.344
37.344
40.1706
40.1706
46.4818
46.4818
38.7315
38.7315
41.6631
41.6631
36.0062
36.0062
40.1706
40.1706
41.6631
41.6631
41.6631
41.6631
40.1706
40.1706
40.1706
40.1706
34.7163
34.7163
38.7315
38.7315
37.344
37.344
38.7315
38.7315
37.344
37.344
38.7315
38.7315
36.0062
36.0062
37.344
37.344
33.4726
33.4726
34.7163
34.7163
40.1706
40.1706
38.7315
38.7315
37.344
37.344
33.4726
33.4726
36.0062
36.0062
34.7163
34.7163
33.4726
33.4726
33.4726
33.4726
32.2735
32.2735
38.7315
38.7315
31.1173
31.1173
32.2735
32.2735
37.344
37.344
36.0062
36.0062
33.4726
33.4726
32.2735
32.2735
31.1173
31.1173
30.0026
30.0026
30.0026
30.0026
31.1173
31.1173
30.0026
30.0026
27.8914
27.8914
28.9278
28.9278
28.9278
28.9278
26.8923
26.8923
28.9278
28.9278
25.9289
25.9289
27.8914
27.8914
28.9278
28.9278
25.9289
25.9289
27.8914
27.8914
27.8914
27.8914
25
25
26.8923
26.8923
