# vtk DataFile Version 3.0
Tree
ASCII
DATASET POLYDATA
POINTS 1582 float
162774 225274 273.8
162774 225274 10273.8
141774 225774 23773.8
140774 213262 31773.8
140224 217915 31273.8
133774 208070 52773.8
135709 211023 46323.8
148774 204006 61773.8
137063 213091 41809
112774 201930 45773.8
133221 208181 51444.2
122774 198102 66773.8
126744 201932 60948.6
134774 197986 76773.8
147206 204188 58912.2
162774 191774 71129.8
123965 199251 65026.2
105774 191774 64125.8
154367 198477 64532.2
150774 195774 82893.8
111231 194017 64395.8
104774 186102 78773.8
161803 191764 69858.6
172050 178774 74773.8
167336 184749 72513
171974 182774 93773.8
107173 191445 64235.8
92773.8 179974 63773.8
132365 199169 72026.2
120774 192006 91773.8
150204 196535 80019.4
139774 195998 97773.8
170636 180567 74095.4
175222 163774 67773.8
173704 167468 67800.6
173226 157774 55773.8
97093.8 183415 63912.6
89573.8 176774 79773.8
170353 182119 80529.8
179942 169774 88773.8
176596 172975 84908.6
180018 161774 81773.8
178938 170734 87614.2
179886 172774 106774
94069.8 181006 63815.4
81677.8 164774 67773.8
123483 194296 89241.8
117774 194550 111774
142271 196170 96852.2
136774 195998 114774
121587 192693 91014.2
103774 189774 99653.8
179285 162418 81780.2
181386 144774 75773.8
173183 158571 57901
172002 144774 47773.8
180099 170414 101328
183774 161018 115774
90092.2 176763 76471.4
78773.8 163890 86773.8
85791 171871 80386.2
82773.8 174774 97573.8
118092 194352 103872
105774 193774 111662
171487 182577 89800.6
160774 191890 104774
180822 146220 75659.8
181774 129774 68501.8
179798 161967 81775.8
183998 147774 89773.8
140958 196072 108327
149774 195998 123774
117211 194935 110476
112774 197910 126774
85046.2 165488 67347
79545.8 148774 70773.8
180989 133514 68652.6
178002 124774 55773.8
181217 145208 75739.4
183998 137774 85773.8
182661 160876 112551
183998 149774 120774
80949.8 165180 84118.2
76773.8 153154 83773.8
79426.6 164277 85977
76773.8 160774 101890
183383 154881 116991
183998 143774 111774
138488 196308 114006
133774 197942 132774
107140 193123 109714
91773.8 188006 112774
135188 197451 127143
145774 195986 140774
179949 172066 105140
173234 183774 112774
179114 124228 58019
178018 115774 49773.8
94577 187955 111948
82161.8 177774 112774
82039 152804 68454.6
83601.8 135774 62773.8
183783 150021 120710
183998 138774 129774
114252 197399 124613
114774 199994 142774
183166 156679 115659
183998 157774 137774
178335 124610 56447.4
182774 128774 39885.8
149073 195457 120163
161774 191994 127774
78681 156732 85461.8
77569.8 141774 94773.8
183247 139361 84744.6
183998 134774 97773.8
183916 143048 126329
183866 130774 121774
183511 139604 129413
180774 131578 137774
114450 198385 131514
102774 194774 139946
80293.8 149983 70077.8
79549.8 137774 80773.8
78350.6 148346 93009.8
79733.8 142774 110774
183633 140637 128488
183774 143774 141890
140410 196726 137013
139974 196774 155774
90852.2 184901 112195
86773.8 177774 127322
83454.2 138972 65147.4
85561.8 125774 68773.8
183440 160975 114807
179918 172774 122774
113871 198560 140653
109138 193774 155774
181531 135197 136283
177774 132774 152806
110013 197013 134718
98301.8 193774 128774
183243 156391 136386
182014 153774 151774
157503 193175 127070
163018 191774 141774
84093 136261 63194.2
87733.8 125774 55773.8
160683 191680 127079
171978 184774 125774
80318.6 138184 80167
81657.8 128774 87773.8
110937 195593 150028
100774 184774 151962
79239.4 146124 105396
79661.8 152774 116774
114503 199564 142137
126774 200002 151774
85552.2 128077 66954.6
89557.8 116774 62773.8
137817 197446 152290
131774 199230 164774
88639 178205 125408
88773.8 171170 137774
183202 132268 123424
179026 117774 124774
88702.2 178528 121115
83557.8 163774 127774
180441 132060 137314
175202 119774 140774
79427.4 144851 107440
83445.8 132774 106774
139126 196985 155397
141774 195834 165774
79641.8 143397 109773
83773.8 141774 121898
180279 122122 124369
180010 115774 114774
104907 194897 137282
95773.8 188774 136974
109677 194319 154050
115774 192402 167774
176773 123460 139736
170774 121598 152774
103823 188019 151382
103706 178774 162774
179402 119078 124652
172094 110774 132774
87697.8 126610 55628.2
91765.8 116774 46773.8
145044 195795 140717
153970 192774 149774
81872.6 130195 86985
85773.8 120774 96809.8
85496.6 167197 127236
87485.8 159774 136774
172114 122950 150933
168774 127666 164774
103759 183027 157533
97773.8 172774 156802
178416 134894 150029
175774 137578 161774
83901.4 137074 63780.2
87501.8 139774 48773.8
140769 195997 164703
141966 194774 176774
181892 155041 149607
178774 157774 165970
88356.2 120165 64028.2
93529.8 107774 72773.8
183771 157359 137357
182002 166774 137774
83667 125861 91504.2
90773.8 113566 86773.8
81873 142521 116321
87773.8 129578 119774
141472 195883 165453
149774 191026 168774
91065.4 113785 67053.4
94773.8 105574 63773.8
113945 192977 163657
113510 180774 174774
180091 117678 117652
174042 102774 115774
93661.4 108037 64757.8
94361.8 105774 55773.8
168589 186846 126165
175258 181774 137774
171390 122220 151927
165774 111774 148434
86013.8 121307 96212.2
91549.8 114774 102774
89723 171630 136617
92317.8 164774 147774
172134 111647 132785
165974 106774 139774
83413.4 133120 106934
86773.8 123658 106774
139719 196837 155661
149050 193774 157774
172106 111036 132777
169774 101774 126122
86128.6 134275 119711
90773.8 130774 127958
142388 194362 172829
147974 188774 178774
171112 124365 155086
161134 117774 162774
89380.2 131824 125484
92773.8 123774 125162
173777 103316 115479
169234 93773.8 113774
168332 126430 162923
159774 127090 175774
179197 155417 161335
173998 147774 173774
103739 178923 161165
103774 166774 167382
168807 109015 136559
163974 100774 133774
174731 148297 170415
169206 136774 173774
178321 157272 165399
173998 162774 178774
103439 168934 165058
101450 158774 162774
142014 194187 176162
140774 192082 186774
174218 147931 172766
173774 153774 179050
90180.6 116183 99560.2
98773.8 104774 99973.8
182674 163196 137616
181782 168774 148774
176290 161965 170954
174774 169318 173774
113968 181463 174099
114774 172774 181894
175671 107625 116131
175998 99773.8 103774
95877.8 108487 98681
99569.8 102774 91773.8
94440.2 106313 64069
100774 94257.8 61773.8
170294 95930.2 113254
168046 90773.8 106774
97531.4 105511 93623.8
96349.8 104774 83773.8
172464 183969 134971
171974 184774 146774
91683.8 114905 102418
98277.8 109774 113774
148320 193717 157769
159774 189194 160774
174064 147821 173471
168774 145774 183322
90355.8 131089 127215
97773.8 124774 136970
169806 94938.2 113493
164774 94217.8 121774
173942 163255 178062
169178 167774 188774
104102 166928 166906
107530 158774 173774
160576 127700 175407
155774 128998 183774
91726.2 125751 124289
93773.8 117774 118126
161953 191550 141045
163942 189774 151774
169864 145370 180077
163334 137774 184774
106499 159995 171667
106774 151774 171970
172781 183512 143623
176518 177774 153774
169101 145653 182349
167774 153774 191982
114967 173179 181669
116154 166774 187774
175271 100157 105208
173774 92169.8 94773.8
98958.2 103595 92329
107774 94289.8 92773.8
164625 101923 133265
160774 95457.8 128774
168055 91083 107263
163774 83037.8 97773.8
97618.2 110039 110988
106282 101774 115774
149232 191389 167991
157326 186774 169774
169189 167749 187026
163774 172850 194774
100017 96465 62953.4
107586 86773.8 65773.8
166283 94433.8 119290
157774 89005.8 121774
104424 97825.8 92604.6
108774 91581.8 80773.8
95548.2 126668 134043
97705.8 132774 144774
165459 87583.8 104353
157774 81605.8 104774
102297 105576 113572
107590 96773.8 105774
107220 159140 173142
112774 154774 183970
170615 166401 184337
161774 178542 185774
100893 106915 112797
105774 107998 126774
175397 179495 150729
170774 182046 160774
92855.8 124241 125212
97773.8 118774 129198
107322 154469 172792
111534 145774 178774
103876 106574 119085
109998 101774 122774
174858 95469.8 97490.2
177774 95773.8 88089.8
94614.6 105627 59217
98317.8 97773.8 52773.8
173960 92833.4 94872.2
171774 86773.8 87133.8
106617 89035 66301.4
112774 83773.8 70881.8
175982 178092 153535
176774 173774 163166
110620 85336.2 68197
116302 78773.8 65773.8
148090 189003 177711
154774 183206 181774
164269 171894 191949
153774 178774 193970
97776.2 132615 144647
99773.8 137774 153926
163608 83942.2 97893.4
160774 79773.8 88801.8
97727 132726 144736
94773.8 143774 147294
106025 107048 125063
112310 104774 133774
110709 146861 177159
113762 136774 178774
114936 79985.8 65448.2
117506 74773.8 58773.8
112397 156171 183105
117774 154774 193258
97425.8 119690 129070
104774 114774 135974
111286 146100 178289
116774 142774 187890
174745 167966 172367
170774 178042 170774
95998.6 142199 148095
95773.8 150774 153078
172100 87313 87549.4
170442 81773.8 79773.8
110424 105456 131161
119130 97773.8 129774
172658 88969 89746.2
178038 88773.8 76773.8
112846 139800 178289
112342 132774 171774
115892 79137.4 65676.2
124354 75773.8 68773.8
116882 154311 191353
121774 148774 199234
100031 136521 152659
105462 138774 162774
171629 83572.6 81403.8
174774 80773.8 71977.8
116408 142158 186185
121738 136774 192774
108416 102858 120628
117502 94773.8 118774
113487 137682 178629
120774 131598 184774
170798 82313.4 80262.6
160774 74529.8 75773.8
87243.4 160238 134619
89589.8 148774 139774
173830 81613.4 74805.4
169774 73773.8 69973.8
153555 185034 179936
162774 181774 178802
111744 104979 132990
121774 103774 143970
169889 75330.6 71122.6
162774 69773.8 68861.8
113191 134253 174054
117146 125774 171774
118204 98552.2 129131
125774 91773.8 125894
116807 105132 139781
117106 109774 147774
106938 152583 172217
102314 148774 163774
123188 93726.2 125890
126230 88773.8 117774
121368 149009 197602
128310 139774 202774
96216.6 128452 137225
92349.8 137774 138774
119887 104290 142378
127774 98333.8 138774
83630.6 142315 121189
87501.8 143774 130774
116166 109269 145536
111138 117774 151774
121208 103929 143492
127774 105774 151990
125317 90259.4 120209
134774 85773.8 118898
126328 89090.2 118116
130774 84773.8 109958
112646 115222 149903
105706 120774 146774
[...]
CELL_DATA 1581
SCALARS radius float
LOOKUP_TABLE default
100
100
100
100
92.9635
92.9635
86.4222
86.4222
89.6332
89.6332
83.3262
83.3262
80.3411
80.3411
83.3262
83.3262
77.463
77.463
80.3411
80.3411
74.6879
74.6879
77.463
77.463
74.6879
74.6879
72.0123
72.0123
77.463
77.463
74.6879
74.6879
72.0123
72.0123
64.547
64.547
69.4326
69.4326
72.0123
72.0123
69.4326
69.4326
66.9452
66.9452
66.9452
66.9452
74.6879
74.6879
72.0123
72.0123
72.0123
72.0123
66.9452
66.9452
60.0051
60.0051
64.547
64.547
66.9452
66.9452
64.547
64.547
72.0123
72.0123
66.9452
66.9452
64.547
64.547
64.547
64.547
69.4326
69.4326
69.4326
69.4326
64.547
64.547
60.0051
60.0051
62.2346
62.2346
62.2346
62.2346
62.2346
62.2346
60.0051
60.0051
57.8555
57.8555
66.9452
66.9452
66.9452
66.9452
62.2346
62.2346
62.2346
62.2346
57.8555
57.8555
64.547
64.547
60.0051
60.0051
55.7829
55.7829
66.9452
66.9452
60.0051
60.0051
55.7829
55.7829
66.9452
66.9452
60.0051
60.0051
60.0051
60.0051
53.7845
53.7845
50
50
64.547
64.547
57.8555
57.8555
57.8555
57.8555
51.8578
51.8578
60.0051
60.0051
62.2346
62.2346
57.8555
57.8555
60.0051
60.0051
62.2346
62.2346
48.2088
48.2088
62.2346
62.2346
55.7829
55.7829
64.547
64.547
53.7845
53.7845
62.2346
62.2346
55.7829
55.7829
60.0051
60.0051
55.7829
55.7829
60.0051
60.0051
55.7829
55.7829
57.8555
57.8555
55.7829
55.7829
51.8578
51.8578
57.8555
57.8555
46.4818
46.4818
53.7845
53.7845
55.7829
55.7829
51.8578
51.8578
50
50
60.0051
60.0051
57.8555
57.8555
44.8166
44.8166
57.8555
57.8555
48.2088
48.2088
51.8578
51.8578
57.8555
57.8555
53.7845
53.7845
53.7845
53.7845
43.2111
43.2111
55.7829
55.7829
44.8166
44.8166
55.7829
55.7829
53.7845
53.7845
53.7845
53.7845
53.7845
53.7845
53.7845
53.7845
51.8578
51.8578
50
50
51.8578
51.8578
50
50
53.7845
53.7845
48.2088
48.2088
48.2088
48.2088
60.0051
60.0051
41.6631
41.6631
50
50
51.8578
51.8578
46.4818
46.4818
50
50
53.7845
53.7845
44.8166
44.8166
48.2088
48.2088
50
50
41.6631
41.6631
46.4818
46.4818
44.8166
44.8166
40.1706
40.1706
51.8578
51.8578
53.7845
53.7845
43.2111
43.2111
48.2088
48.2088
50
50
51.8578
51.8578
48.2088
48.2088
46.4818
46.4818
48.2088
48.2088
51.8578
51.8578
48.2088
48.2088
51.8578
51.8578
46.4818
46.4818
44.8166
44.8166
46.4818
46.4818
43.2111
43.2111
43.2111
43.2111
57.8555
57.8555
46.4818
46.4818
50
50
44.8166
44.8166
44.8166
44.8166
41.6631
41.6631
46.4818
46.4818
50
50
37.344
37.344
44.8166
44.8166
57.8555
57.8555
43.2111
43.2111
48.2088
48.2088
55.7829
55.7829
41.6631
41.6631
48.2088
48.2088
44.8166
44.8166
41.6631
41.6631
41.6631
41.6631
41.6631
41.6631
44.8166
44.8166
50
50
43.2111
43.2111
44.8166
44.8166
40.1706
40.1706
40.1706
40.1706
43.2111
43.2111
40.1706
40.1706
41.6631
41.6631
46.4818
46.4818
44.8166
44.8166
43.2111
43.2111
53.7845
53.7845
43.2111
43.2111
46.4818
46.4818
41.6631
41.6631
43.2111
43.2111
46.4818
46.4818
41.6631
41.6631
43.2111
43.2111
51.8578
51.8578
41.6631
41.6631
48.2088
48.2088
41.6631
41.6631
38.7315
38.7315
38.7315
38.7315
37.344
37.344
40.1706
40.1706
43.2111
43.2111
40.1706
40.1706
44.8166
44.8166
41.6631
41.6631
41.6631
41.6631
46.4818
46.4818
36.0062
36.0062
38.7315
38.7315
38.7315
38.7315
40.1706
40.1706
41.6631
41.6631
38.7315
38.7315
43.2111
43.2111
37.344
37.344
37.344
37.344
40.1706
40.1706
40.1706
40.1706
40.1706
40.1706
36.0062
36.0062
48.2088
48.2088
36.0062
36.0062
44.8166
44.8166
37.344
37.344
34.7163
34.7163
40.1706
40.1706
37.344
37.344
36.0062
36.0062
44.8166
44.8166
36.0062
36.0062
41.6631
41.6631
41.6631
41.6631
34.7163
34.7163
48.2088
48.2088
34.7163
34.7163
33.4726
33.4726
34.7163
34.7163
33.4726
33.4726
32.2735
32.2735
31.1173
31.1173
31.1173
31.1173
32.2735
32.2735
31.1173
31.1173
33.4726
33.4726
34.7163
34.7163
50
50
38.7315
38.7315
30.0026
30.0026
37.344
37.344
33.4726
33.4726
28.9278
28.9278
31.1173
31.1173
37.344
37.344
30.0026
30.0026
34.7163
34.7163
96.4176
96.4176
89.6332
89.6332
83.3262
83.3262
80.3411
80.3411
86.4222
86.4222
83.3262
83.3262
80.3411
80.3411
80.3411
80.3411
80.3411
80.3411
74.6879
74.6879
77.463
77.463
77.463
77.463
72.0123
72.0123
74.6879
74.6879
77.463
77.463
77.463
77.463
74.6879
74.6879
72.0123
72.0123
74.6879
74.6879
69.4326
69.4326
72.0123
72.0123
72.0123
72.0123
74.6879
74.6879
69.4326
69.4326
64.547
64.547
72.0123
72.0123
66.9452
66.9452
69.4326
69.4326
69.4326
69.4326
66.9452
66.9452
69.4326
69.4326
64.547
64.547
69.4326
69.4326
66.9452
66.9452
64.547
64.547
66.9452
66.9452
69.4326
69.4326
64.547
64.547
62.2346
62.2346
66.9452
66.9452
66.9452
66.9452
64.547
64.547
64.547
64.547
57.8555
57.8555
60.0051
60.0051
64.547
64.547
62.2346
62.2346
57.8555
57.8555
60.0051
60.0051
55.7829
55.7829
55.7829
55.7829
62.2346
62.2346
64.547
64.547
62.2346
62.2346
60.0051
60.0051
62.2346
62.2346
64.547
64.547
62.2346
62.2346
60.0051
60.0051
60.0051
60.0051
57.8555
57.8555
62.2346
62.2346
64.547
64.547
62.2346
62.2346
69.4326
69.4326
55.7829
55.7829
60.0051
60.0051
62.2346
62.2346
57.8555
57.8555
62.2346
62.2346
60.0051
60.0051
57.8555
57.8555
57.8555
57.8555
55.7829
55.7829
53.7845
53.7845
60.0051
60.0051
60.0051
60.0051
57.8555
57.8555
55.7829
55.7829
60.0051
60.0051
57.8555
57.8555
57.8555
57.8555
53.7845
53.7845
60.0051
60.0051
57.8555
57.8555
57.8555
57.8555
53.7845
53.7845
55.7829
55.7829
55.7829
55.7829
60.0051
60.0051
53.7845
53.7845
51.8578
51.8578
55.7829
55.7829
51.8578
51.8578
51.8578
51.8578
50
50
60.0051
60.0051
55.7829
55.7829
48.2088
48.2088
55.7829
55.7829
53.7845
53.7845
57.8555
57.8555
60.0051
60.0051
50
50
57.8555
57.8555
53.7845
53.7845
57.8555
57.8555
48.2088
48.2088
60.0051
60.0051
55.7829
55.7829
46.4818
46.4818
62.2346
62.2346
51.8578
51.8578
55.7829
55.7829
57.8555
57.8555
43.2111
43.2111
55.7829
55.7829
41.6631
41.6631
51.8578
51.8578
57.8555
57.8555
55.7829
55.7829
43.2111
43.2111
53.7845
53.7845
50
50
57.8555
57.8555
50
50
55.7829
55.7829
51.8578
51.8578
51.8578
51.8578
55.7829
55.7829
51.8578
51.8578
53.7845
53.7845
55.7829
55.7829
51.8578
51.8578
51.8578
51.8578
51.8578
51.8578
41.6631
41.6631
51.8578
51.8578
51.8578
51.8578
50
50
51.8578
51.8578
46.4818
46.4818
48.2088
48.2088
53.7845
53.7845
44.8166
44.8166
46.4818
46.4818
57.8555
57.8555
48.2088
48.2088
50
50
51.8578
51.8578
50
50
50
50
40.1706
40.1706
46.4818
46.4818
53.7845
53.7845
50
50
48.2088
48.2088
60.0051
60.0051
38.7315
38.7315
50
50
41.6631
41.6631
48.2088
48.2088
44.8166
44.8166
57.8555
57.8555
46.4818
46.4818
55.7829
55.7829
53.7845
53.7845
38.7315
38.7315
48.2088
48.2088
50
50
44.8166
44.8166
48.2088
48.2088
50
50
38.7315
38.7315
46.4818
46.4818
53.7845
53.7845
40.1706
40.1706
44.8166
44.8166
48.2088
48.2088
50
50
41.6631
41.6631
46.4818
46.4818
50
50
46.4818
46.4818
48.2088
48.2088
37.344
37.344
43.2111
43.2111
55.7829
55.7829
37.344
37.344
41.6631
41.6631
53.7845
53.7845
36.0062
36.0062
46.4818
46.4818
40.1706
40.1706
43.2111
43.2111
48.2088
48.2088
43.2111
43.2111
53.7845
53.7845
40.1706
40.1706
43.2111
43.2111
36.0062
36.0062
41.6631
41.6631
38.7315
38.7315
43.2111
43.2111
40.1706
40.1706
40.1706
40.1706
51.8578
51.8578
38.7315
38.7315
40.1706
40.1706
38.7315
38.7315
41.6631
41.6631
38.7315
38.7315
43.2111
43.2111
43.2111
43.2111
40.1706
40.1706
40.1706
40.1706
38.7315
38.7315
40.1706
40.1706
41.6631
41.6631
37.344
37.344
40.1706
40.1706
40.1706
40.1706
41.6631
41.6631
37.344
37.344
51.8578
51.8578
36.0062
36.0062
50
50
36.0062
36.0062
46.4818
46.4818
37.344
37.344
46.4818
46.4818
44.8166
44.8166
37.344
37.344
36.0062
36.0062
40.1706
40.1706
44.8166
44.8166
36.0062
36.0062
44.8166
44.8166
36.0062
36.0062
44.8166
44.8166
37.344
37.344
48.2088
48.2088
43.2111
43.2111
46.4818
46.4818
40.1706
40.1706
34.7163
34.7163
38.7315
38.7315
36.0062
36.0062
38.7315
38.7315
43.2111
43.2111
33.4726
33.4726
34.7163
34.7163
38.7315
38.7315
36.0062
36.0062
40.1706
40.1706
33.4726
33.4726
32.2735
32.2735
36.0062
36.0062
32.2735
32.2735
32.2735
32.2735
30.0026
30.0026
48.2088
48.2088
32.2735
32.2735
46.4818
46.4818
38.7315
38.7315
36.0062
36.0062
30.0026
30.0026
33.4726
33.4726
30.0026
30.0026
28.9278
28.9278
48.2088
48.2088
32.2735
32.2735
27.8914
27.8914
36.0062
36.0062
33.4726
33.4726
32.2735
32.2735
86.4222
86.4222
83.3262
83.3262
80.3411
80.3411
74.6879
74.6879
74.6879
74.6879
77.463
77.463
77.463
77.463
77.463
77.463
72.0123
72.0123
69.4326
69.4326
69.4326
69.4326
72.0123
72.0123
69.4326
69.4326
66.9452
66.9452
72.0123
72.0123
69.4326
69.4326
66.9452
66.9452
64.547
64.547
69.4326
69.4326
72.0123
72.0123
69.4326
69.4326
66.9452
66.9452
69.4326
69.4326
66.9452
66.9452
69.4326
69.4326
64.547
64.547
69.4326
69.4326
66.9452
66.9452
62.2346
62.2346
66.9452
66.9452
60.0051
60.0051
66.9452
66.9452
62.2346
62.2346
69.4326
69.4326
62.2346
62.2346
62.2346
62.2346
55.7829
55.7829
57.8555
57.8555
57.8555
57.8555
55.7829
55.7829
64.547
64.547
60.0051
60.0051
57.8555
57.8555
69.4326
69.4326
64.547
64.547
62.2346
62.2346
57.8555
57.8555
57.8555
57.8555
60.0051
60.0051
62.2346
62.2346
57.8555
57.8555
62.2346
62.2346
57.8555
57.8555
62.2346
62.2346
66.9452
66.9452
55.7829
55.7829
57.8555
57.8555
60.0051
60.0051
55.7829
55.7829
57.8555
57.8555
57.8555
57.8555
64.547
64.547
53.7845
53.7845
53.7845
53.7845
55.7829
55.7829
53.7845
53.7845
60.0051
60.0051
55.7829
55.7829
55.7829
55.7829
55.7829
55.7829
57.8555
57.8555
55.7829
55.7829
55.7829
55.7829
51.8578
51.8578
57.8555
57.8555
51.8578
51.8578
53.7845
53.7845
53.7845
53.7845
53.7845
53.7845
51.8578
51.8578
53.7845
53.7845
51.8578
51.8578
53.7845
53.7845
55.7829
55.7829
60.0051
60.0051
55.7829
55.7829
53.7845
53.7845
48.2088
48.2088
57.8555
57.8555
51.8578
51.8578
55.7829
55.7829
50
50
46.4818
46.4818
50
50
50
50
55.7829
55.7829
60.0051
60.0051
51.8578
51.8578
48.2088
48.2088
57.8555
57.8555
46.4818
46.4818
53.7845
53.7845
50
50
51.8578
51.8578
53.7845
53.7845
51.8578
51.8578
55.7829
55.7829
40.1706
40.1706
55.7829
55.7829
51.8578
51.8578
55.7829
55.7829
50
50
53.7845
53.7845
50
50
55.7829
55.7829
50
50
53.7845
53.7845
50
50
51.8578
51.8578
51.8578
51.8578
50
50
55.7829
55.7829
55.7829
55.7829
50
50
53.7845
53.7845
38.7315
38.7315
50
50
51.8578
51.8578
48.2088
48.2088
100
96.4176
96.4176
89.6332
89.6332
86.4222
86.4222
83.3262
83.3262
80.3411
80.3411
92.9635
92.9635
77.463
77.463
74.6879
74.6879
89.6332
89.6332
72.0123
72.0123
69.4326
69.4326
86.4222
86.4222
83.3262
83.3262
66.9452
66.9452
80.3411
80.3411
80.3411
80.3411
77.463
77.463
74.6879
74.6879
77.463
77.463
64.547
64.547
69.4326
69.4326
72.0123
72.0123
74.6879
74.6879
66.9452
66.9452
69.4326
69.4326
64.547
64.547
62.2346
62.2346
74.6879
74.6879
72.0123
72.0123
60.0051
60.0051
66.9452
66.9452
69.4326
69.4326
69.4326
69.4326
64.547
64.547
72.0123
72.0123
66.9452
66.9452
64.547
64.547
57.8555
57.8555
74.6879
74.6879
72.0123
72.0123
64.547
64.547
62.2346
62.2346
62.2346
62.2346
62.2346
62.2346
60.0051
60.0051
55.7829
55.7829
57.8555
57.8555
62.2346
62.2346
66.9452
66.9452
60.0051
60.0051
55.7829
55.7829
57.8555
57.8555
60.0051
60.0051
53.7845
53.7845
64.547
64.547
69.4326
69.4326
60.0051
60.0051
55.7829
55.7829
57.8555
57.8555
51.8578
51.8578
53.7845
53.7845
51.8578
51.8578
50
50
51.8578
51.8578
50
50
62.2346
62.2346
60.0051
60.0051
48.2088
48.2088
55.7829
55.7829
53.7845
53.7845
53.7845
53.7845
51.8578
51.8578
48.2088
48.2088
46.4818
46.4818
50
50
46.4818
46.4818
51.8578
51.8578
50
50
50
50
46.4818
46.4818
44.8166
44.8166
43.2111
43.2111
48.2088
48.2088
48.2088
48.2088
41.6631
41.6631
44.8166
44.8166
46.4818
46.4818
43.2111
43.2111
44.8166
44.8166
40.1706
40.1706
43.2111
43.2111
40.1706
40.1706
41.6631
41.6631
46.4818
46.4818
44.8166
44.8166
38.7315
38.7315
43.2111
43.2111
38.7315
38.7315
41.6631
41.6631
43.2111
43.2111
41.6631
41.6631
40.1706
40.1706
40.1706
40.1706
40.1706
40.1706
38.7315
38.7315
37.344
37.344
38.7315
38.7315
36.0062
36.0062
43.2111
43.2111
48.2088
48.2088
38.7315
38.7315
46.4818
46.4818
38.7315
38.7315
37.344
37.344
36.0062
36.0062
37.344
37.344
36.0062
36.0062
43.2111
43.2111
44.8166
44.8166
36.0062
36.0062
41.6631
41.6631
34.7163
34.7163
34.7163
34.7163
33.4726
33.4726
34.7163
34.7163
43.2111
43.2111
33.4726
33.4726
32.2735
32.2735
32.2735
32.2735
31.1173
31.1173
33.4726
33.4726
33.4726
33.4726
31.1173
31.1173
30.0026
30.0026
32.2735
32.2735
28.9278
28.9278
30.0026
30.0026
32.2735
32.2735
27.8914
27.8914
