# vtk DataFile Version 3.0
Tree
ASCII
DATASET POLYDATA
POINTS 1582 float
162774 225274 273.8
162774 225274 10273.8
141774 225774 23773.8
145774 214254 30497.8
142974 222318 25791
122774 207918 42773.8
144934 216673 29085.8
146774 205774 60793.8
146222 209043 51281.4
126774 201774 64805.8
124012 208253 43051.8
111774 198774 55161.8
146608 206755 57940.2
160774 193974 67773.8
134164 204536 59666.6
136774 197774 79201.8
155676 198065 66711.8
159774 191242 84773.8
128132 201481 64551.4
113774 191194 78773.8
112330 198579 53977.8
99773.8 187246 64773.8
159032 194399 66587.4
169814 179774 63773.8
160369 191899 80877
171930 182774 91773.8
134669 199071 75547.4
126774 193998 90773.8
131669 197143 81333.4
140774 195998 94773.8
167472 180057 64674.2
173774 164070 63773.8
168719 184567 87119.8
177898 172774 85773.8
171387 182425 91312.6
177910 174774 102774
100876 187735 62695.4
85773.8 172802 72773.8
115568 193578 78702.6
103774 187954 94773.8
170707 169923 62201
171222 156774 49773.8
90304.6 177282 69750.2
88281.8 175774 86773.8
127227 195107 90269.8
117774 194054 110774
137447 196399 92729.8
139774 195998 113774
173074 165193 64371.8
179946 150774 73773.8
176967 174422 101906
181998 164774 112774
138145 196279 99043
155774 193982 106774
177437 154001 69503
179202 137774 66773.8
87572.6 173201 70989.8
79529.8 156774 72773.8
175293 176823 98728.2
183970 155774 99773.8
86827 175207 84126.2
80773.8 172026 96773.8
87845.4 175604 85979.4
90773.8 182774 99589.8
119763 195348 109691
116774 197774 124482
137804 196097 109878
129774 196006 122774
118371 194442 110449
104774 193994 115774
139183 196028 112605
150774 195998 118774
145442 196011 115936
145774 195998 129774
154398 193075 104918
165970 188774 106774
178672 142642 67592.6
183998 131774 80773.8
179043 139234 67019.4
178774 121958 56773.8
181895 158586 97563
183998 147774 92773.8
181214 135311 72207
183186 125774 72773.8
178116 132159 59171.8
175962 128774 47773.8
183347 156617 99110.6
183998 141774 119774
183803 146227 113575
183998 155774 132774
81983.8 158829 71732.2
81545.8 139774 68773.8
80265.8 157391 72461.4
76325.8 147774 92773.8
82440.6 171004 93747
77545.8 156774 106774
81677 145491 69661.4
85445.8 140774 56773.8
116321 197147 122769
107774 197978 140774
81273.8 171719 95865.8
79773.8 172774 110890
79667.8 158247 102885
79529.8 145774 107774
183801 143129 119208
183194 137774 134774
80223.8 172457 106383
87773.8 185258 114774
145648 196003 124515
159074 193774 131774
155173 194034 128253
164774 190062 124774
77843.4 148690 87429.4
79565.8 135774 93773.8
145736 195999 128196
143774 195982 152774
113073 197463 129611
122774 200002 143774
141140 196837 141160
135774 198002 146774
82355.4 141159 68597.4
86773.8 125578 63773.8
183939 142180 119604
182010 127774 123774
109485 197457 139580
109774 195254 153774
183914 152776 129832
183774 152774 148790
180489 167668 109513
181230 169774 122774
83092.6 177321 109571
86773.8 175774 129322
183376 139380 130104
178094 124774 136774
86835.4 183112 114686
92773.8 189774 127154
183249 138256 133373
177774 133774 153894
158334 193357 131380
165774 189994 139774
106637 194098 116456
99773.8 193982 122774
79256.2 139315 90573.4
81661.8 128774 86773.8
109618 196444 146109
100774 184774 151962
110432 195648 152700
114774 195774 160886
86143.8 128939 63077.4
89573.8 119774 55773.8
136243 197967 146658
128774 199998 156774
79571 149516 106307
82345.8 147774 120774
131015 199389 153739
137078 197774 167774
86870.6 174963 127564
89545.8 172774 138774
181658 129024 121879
178550 115774 121774
86897.8 125908 63783
90313.8 113774 66773.8
163470 190114 125993
173978 182774 126774
177947 133584 149176
168450 123774 159774
79542.2 146897 107334
83773.8 131774 110054
178152 126599 136909
173774 118774 142974
85366.2 174082 122136
85569.8 162774 133774
103427 188275 150206
108002 180774 167774
176138 122999 139699
173238 111774 133774
91993.4 187642 125998
96773.8 189774 137274
182766 154175 146359
180014 157774 161774
104327 184499 156289
101034 175774 159774
80940.2 131936 87913.8
85773.8 120774 96809.8
114161 195117 160200
118774 191322 171774
83937 125015 93429.4
88321.8 115774 88773.8
137482 196691 165521
143382 193774 174774
181059 156406 155916
178014 147774 163774
115914 193675 164598
123774 197842 167774
82612.2 128237 92225.8
83677.8 126774 101774
139724 195583 169037
147774 191998 167774
89219 120708 57185.8
93653.8 108774 51773.8
142984 196238 149290
154774 192018 152774
92323.4 112354 53397.4
94521.8 111774 42773.8
82766.2 148891 119785
87017.8 149774 133774
183669 155545 132018
182002 166774 139774
89462.6 117432 67267
92773.8 109570 77773.8
170825 184976 126540
175258 181774 137774
178306 117154 120696
173238 101774 117774
171119 127767 157837
163774 127774 172434
90535.8 114672 67344.6
95485.8 104774 68773.8
88921.4 172000 136013
91773.8 161774 147082
174340 116040 136025
166410 107774 141774
179817 157295 161404
175994 157774 173774
82471.8 148109 120477
87545.8 134774 124774
117916 192028 169621
115774 180970 178774
173671 119971 142797
165774 114342 151774
85896.6 121618 96471
92293.8 113774 104774
102167 176730 159700
102774 165774 165970
174170 104735 116519
170774 94773.8 109954
168915 127769 162216
171206 137774 170774
93254.6 109848 52261
97553.8 99773.8 58773.8
168844 109967 139062
163974 102774 136774
87802.6 117748 91103.4
95573.8 106774 93773.8
87578.6 136241 123959
93461.8 124774 126774
166409 105447 136778
166410 99773.8 129774
177088 156168 168875
172066 147774 176774
102190 168628 163188
100122 158774 161774
141724 194290 173987
142774 191906 186774
168243 124511 159525
158774 116774 163946
176322 157292 172304
173998 167774 176774
115619 181763 176125
112774 171166 179774
161615 119095 162619
157774 111538 156774
89863 116755 101619
90773.8 119658 112774
182254 154844 149226
181774 166774 152802
164742 128585 171263
160774 133574 183774
92350.2 113960 104509
98773.8 107654 110774
181548 164533 151273
179234 173774 148774
176092 157629 173333
172062 159774 182774
173601 183058 136001
171974 184774 146774
95840.2 107437 93419.4
101574 100774 94773.8
152681 192574 153619
160774 189182 159774
173271 159131 179941
169774 150774 186798
91697 128214 125929
97773.8 124774 136970
165951 100487 130335
164774 94217.8 121774
172425 159581 181924
168774 169774 187318
97639.8 101246 58929.8
102774 93517.8 66773.8
175411 108461 117772
177834 101774 101774
171037 96238.6 110010
166862 85773.8 100774
99853.8 102773 94367.4
104774 96361.8 85773.8
103205 166478 165701
108314 158774 175774
175994 101674 105493
174034 93773.8 96773.8
97431.4 109513 110343
101574 108774 119774
113923 173132 179769
115498 164774 186774
164532 94971.4 123105
160774 87509.8 114774
92932.2 125806 126521
94773.8 117658 120774
167441 90517 106997
161774 84773.8 107166
98371 108212 110644
105774 100774 113130
146658 192234 168675
155330 186774 171774
170717 154787 185139
165774 153774 196006
100823 96454.6 63793
105614 86773.8 59773.8
180669 168044 150323
177018 175774 158774
168919 167606 186765
162774 173946 193774
96368.6 126543 135081
99457.8 130774 144774
169480 151659 186527
164774 144774 189958
107120 159454 173194
109642 148774 176774
163474 86496.6 107115
157774 80521.8 98773.8
108329 158841 175606
112774 156774 183970
103743 102645 111370
109774 95541.8 106774
176438 175057 156629
170774 182046 160774
104765 96568.6 86843.8
110366 89773.8 79773.8
102830 93931.4 65673.8
110282 85773.8 69773.8
174947 95973.8 97868.2
176774 94253.8 87773.8
101704 108731 119378
106774 107774 129138
142039 193575 177823
149774 186774 181134
93303 125083 126698
99773.8 116774 130890
176079 94907.4 91609.8
171774 86773.8 87133.8
149819 187079 181093
158774 180090 184774
97579.4 100215 58820.6
100774 93573.8 49773.8
159484 82314.2 101276
162774 81613.8 90773.8
103225 108443 122306
112774 99597.8 123774
105603 88195.8 61139
114774 78261.8 61773.8
157806 81299.4 99350.2
151774 79545.8 93773.8
98283.8 129166 141091
93761.8 140774 144774
162284 85290.6 107151
152774 81765.8 110774
96203.8 134505 142785
99773.8 139774 155062
111283 156123 180934
115774 145774 187974
163033 172630 192477
152774 176774 198026
114067 149706 185299
114774 138774 180026
174739 177153 157873
172774 176774 169946
98702.6 138193 151379
96773.8 148386 153774
172032 87696.6 86924.2
167774 80773.8 81269.8
114562 142053 181608
109550 139774 171774
173246 89859.8 88329.8
176774 87665.8 78773.8
114413 144349 182715
118342 137774 186774
115671 165771 186325
119774 155774 197082
161325 81265.4 92493.4
158774 77773.8 82801.8
106788 107362 127339
117774 102774 137274
172621 177612 166116
166774 181810 172774
112404 81810.6 62697.4
120774 78773.8 69957.8
175119 87435.4 81558.2
173774 80533.8 74773.8
119305 155933 194974
121614 147774 198774
117593 79927.8 67199
125774 71773.8 63961.8
160038 78436.6 84574.6
162882 75773.8 76773.8
112539 106130 134560
114774 108206 141774
99452.6 139300 153957
105774 134774 161370
162939 76212.6 78052.2
168774 73773.8 70861.8
112363 100518 122744
122218 92773.8 121774
105485 134904 160632
113774 128774 169326
86250.2 148695 130557
89733.8 143774 137774
117133 139291 184469
121774 128414 182774
110495 141412 174404
103774 145774 165974
114103 107583 139610
121774 104358 144774
121573 148857 197917
125774 139774 199978
118897 135158 183825
123146 131774 189774
120911 130437 183089
119774 126282 175774
116503 103377 135643
124774 96773.8 133958
114573 108019 141125
116774 111774 150890
120606 104727 143239
128226 100774 143774
121460 94324.6 122364
130774 89461.8 122774
125744 92087.8 122553
128774 86773.8 113958
88131.4 146038 134454
91545.8 151774 143774
114495 110503 145112
109774 118518 150774
121423 104469 144313
130774 105774 154862
98935.4 118737 131002
106266 114774 139774
130256 89630.2 122294
136774 85601.8 119774
99105.8 130291 143669
104374 124774 149774
127081 106124 151997
127774 111538 160774
134391 86784.2 119597
139774 81673.8 110774
128644 87564.6 114417
131774 83525.8 105774
136488 86043 119530
144774 83769.8 118774
108775 131691 163139
112998 123774 161774
[...]
CELL_DATA 1581
SCALARS radius float
LOOKUP_TABLE default
100
100
100
100
96.4176
96.4176
92.9635
92.9635
89.6332
89.6332
92.9635
92.9635
86.4222
86.4222
86.4222
86.4222
83.3262
83.3262
80.3411
80.3411
89.6332
89.6332
77.463
77.463
80.3411
80.3411
83.3262
83.3262
80.3411
80.3411
74.6879
74.6879
77.463
77.463
74.6879
74.6879
86.4222
86.4222
72.0123
72.0123
72.0123
72.0123
83.3262
83.3262
77.463
77.463
77.463
77.463
69.4326
69.4326
69.4326
69.4326
74.6879
74.6879
66.9452
66.9452
80.3411
80.3411
72.0123
72.0123
80.3411
80.3411
74.6879
74.6879
72.0123
72.0123
72.0123
72.0123
66.9452
66.9452
69.4326
69.4326
66.9452
66.9452
64.547
64.547
64.547
64.547
62.2346
62.2346
69.4326
69.4326
62.2346
62.2346
57.8555
57.8555
66.9452
66.9452
64.547
64.547
77.463
77.463
74.6879
74.6879
77.463
77.463
74.6879
74.6879
69.4326
69.4326
74.6879
74.6879
72.0123
72.0123
62.2346
62.2346
69.4326
69.4326
64.547
64.547
62.2346
62.2346
72.0123
72.0123
62.2346
62.2346
66.9452
66.9452
57.8555
57.8555
72.0123
72.0123
60.0051
60.0051
64.547
64.547
62.2346
62.2346
66.9452
66.9452
66.9452
66.9452
60.0051
60.0051
64.547
64.547
55.7829
55.7829
57.8555
57.8555
60.0051
60.0051
69.4326
69.4326
62.2346
62.2346
60.0051
60.0051
64.547
64.547
55.7829
55.7829
69.4326
69.4326
51.8578
51.8578
60.0051
60.0051
55.7829
55.7829
62.2346
62.2346
60.0051
60.0051
53.7845
53.7845
66.9452
66.9452
57.8555
57.8555
62.2346
62.2346
60.0051
60.0051
53.7845
53.7845
60.0051
60.0051
60.0051
60.0051
57.8555
57.8555
66.9452
66.9452
57.8555
57.8555
62.2346
62.2346
48.2088
48.2088
55.7829
55.7829
55.7829
55.7829
64.547
64.547
46.4818
46.4818
62.2346
62.2346
53.7845
53.7845
60.0051
60.0051
66.9452
66.9452
60.0051
60.0051
57.8555
57.8555
57.8555
57.8555
53.7845
53.7845
51.8578
51.8578
55.7829
55.7829
57.8555
57.8555
51.8578
51.8578
53.7845
53.7845
64.547
64.547
53.7845
53.7845
51.8578
51.8578
60.0051
60.0051
55.7829
55.7829
50
50
50
50
57.8555
57.8555
50
50
60.0051
60.0051
62.2346
62.2346
48.2088
48.2088
51.8578
51.8578
53.7845
53.7845
44.8166
44.8166
50
50
50
50
51.8578
51.8578
48.2088
48.2088
57.8555
57.8555
57.8555
57.8555
48.2088
48.2088
55.7829
55.7829
55.7829
55.7829
48.2088
48.2088
53.7845
53.7845
53.7845
53.7845
51.8578
51.8578
46.4818
46.4818
60.0051
60.0051
44.8166
44.8166
44.8166
44.8166
55.7829
55.7829
51.8578
51.8578
48.2088
48.2088
51.8578
51.8578
51.8578
51.8578
50
50
53.7845
53.7845
48.2088
48.2088
43.2111
43.2111
57.8555
57.8555
46.4818
46.4818
51.8578
51.8578
44.8166
44.8166
44.8166
44.8166
53.7845
53.7845
53.7845
53.7845
41.6631
41.6631
55.7829
55.7829
43.2111
43.2111
50
50
44.8166
44.8166
48.2088
48.2088
50
50
51.8578
51.8578
50
50
51.8578
51.8578
46.4818
46.4818
51.8578
51.8578
43.2111
43.2111
55.7829
55.7829
44.8166
44.8166
41.6631
41.6631
53.7845
53.7845
43.2111
43.2111
50
50
51.8578
51.8578
41.6631
41.6631
53.7845
53.7845
43.2111
43.2111
51.8578
51.8578
46.4818
46.4818
40.1706
40.1706
44.8166
44.8166
50
50
50
50
41.6631
41.6631
41.6631
41.6631
43.2111
43.2111
43.2111
43.2111
44.8166
44.8166
41.6631
41.6631
48.2088
48.2088
46.4818
46.4818
50
50
41.6631
41.6631
43.2111
43.2111
48.2088
48.2088
40.1706
40.1706
46.4818
46.4818
48.2088
48.2088
38.7315
38.7315
46.4818
46.4818
44.8166
44.8166
64.547
64.547
41.6631
41.6631
40.1706
40.1706
44.8166
44.8166
41.6631
41.6631
40.1706
40.1706
38.7315
38.7315
44.8166
44.8166
43.2111
43.2111
43.2111
43.2111
44.8166
44.8166
43.2111
43.2111
60.0051
60.0051
41.6631
41.6631
41.6631
41.6631
53.7845
53.7845
41.6631
41.6631
51.8578
51.8578
38.7315
38.7315
40.1706
40.1706
40.1706
40.1706
38.7315
38.7315
41.6631
41.6631
40.1706
40.1706
53.7845
53.7845
38.7315
38.7315
38.7315
38.7315
43.2111
43.2111
37.344
37.344
38.7315
38.7315
37.344
37.344
36.0062
36.0062
36.0062
36.0062
89.6332
89.6332
86.4222
86.4222
83.3262
83.3262
77.463
77.463
74.6879
74.6879
72.0123
72.0123
74.6879
74.6879
89.6332
89.6332
72.0123
72.0123
86.4222
86.4222
80.3411
80.3411
86.4222
86.4222
77.463
77.463
74.6879
74.6879
83.3262
83.3262
74.6879
74.6879
72.0123
72.0123
74.6879
74.6879
69.4326
69.4326
77.463
77.463
80.3411
80.3411
74.6879
74.6879
72.0123
72.0123
77.463
77.463
66.9452
66.9452
74.6879
74.6879
69.4326
69.4326
66.9452
66.9452
83.3262
83.3262
64.547
64.547
74.6879
74.6879
62.2346
62.2346
74.6879
74.6879
66.9452
66.9452
66.9452
66.9452
62.2346
62.2346
72.0123
72.0123
72.0123
72.0123
64.547
64.547
69.4326
69.4326
66.9452
66.9452
77.463
77.463
77.463
77.463
69.4326
69.4326
62.2346
62.2346
74.6879
74.6879
60.0051
60.0051
69.4326
69.4326
66.9452
66.9452
74.6879
74.6879
57.8555
57.8555
64.547
64.547
62.2346
62.2346
66.9452
66.9452
64.547
64.547
64.547
64.547
64.547
64.547
72.0123
72.0123
57.8555
57.8555
57.8555
57.8555
66.9452
66.9452
55.7829
55.7829
62.2346
62.2346
62.2346
62.2346
66.9452
66.9452
60.0051
60.0051
62.2346
62.2346
66.9452
66.9452
69.4326
69.4326
72.0123
72.0123
77.463
77.463
74.6879
74.6879
64.547
64.547
64.547
64.547
69.4326
69.4326
72.0123
72.0123
66.9452
66.9452
72.0123
72.0123
62.2346
62.2346
69.4326
69.4326
55.7829
55.7829
62.2346
62.2346
66.9452
66.9452
62.2346
62.2346
60.0051
60.0051
60.0051
60.0051
69.4326
69.4326
53.7845
53.7845
60.0051
60.0051
53.7845
53.7845
62.2346
62.2346
69.4326
69.4326
64.547
64.547
64.547
64.547
60.0051
60.0051
62.2346
62.2346
55.7829
55.7829
69.4326
69.4326
53.7845
53.7845
69.4326
69.4326
50
50
57.8555
57.8555
48.2088
48.2088
57.8555
57.8555
55.7829
55.7829
66.9452
66.9452
46.4818
46.4818
55.7829
55.7829
69.4326
69.4326
62.2346
62.2346
69.4326
69.4326
53.7845
53.7845
60.0051
60.0051
62.2346
62.2346
51.8578
51.8578
62.2346
62.2346
60.0051
60.0051
55.7829
55.7829
57.8555
57.8555
55.7829
55.7829
57.8555
57.8555
57.8555
57.8555
57.8555
57.8555
53.7845
53.7845
66.9452
66.9452
51.8578
51.8578
57.8555
57.8555
51.8578
51.8578
60.0051
60.0051
64.547
64.547
64.547
64.547
50
50
60.0051
60.0051
66.9452
66.9452
53.7845
53.7845
55.7829
55.7829
62.2346
62.2346
64.547
64.547
55.7829
55.7829
55.7829
55.7829
72.0123
72.0123
55.7829
55.7829
57.8555
57.8555
57.8555
57.8555
50
50
53.7845
53.7845
57.8555
57.8555
48.2088
48.2088
57.8555
57.8555
55.7829
55.7829
51.8578
51.8578
53.7845
53.7845
46.4818
46.4818
55.7829
55.7829
69.4326
69.4326
53.7845
53.7845
51.8578
51.8578
66.9452
66.9452
50
50
55.7829
55.7829
55.7829
55.7829
48.2088
48.2088
55.7829
55.7829
46.4818
46.4818
57.8555
57.8555
51.8578
51.8578
46.4818
46.4818
55.7829
55.7829
55.7829
55.7829
53.7845
53.7845
44.8166
44.8166
55.7829
55.7829
50
50
44.8166
44.8166
57.8555
57.8555
53.7845
53.7845
46.4818
46.4818
50
50
51.8578
51.8578
48.2088
48.2088
53.7845
53.7845
53.7845
53.7845
46.4818
46.4818
51.8578
51.8578
48.2088
48.2088
55.7829
55.7829
51.8578
51.8578
44.8166
44.8166
55.7829
55.7829
41.6631
41.6631
46.4818
46.4818
51.8578
51.8578
43.2111
43.2111
43.2111
43.2111
62.2346
62.2346
48.2088
48.2088
53.7845
53.7845
51.8578
51.8578
44.8166
44.8166
51.8578
51.8578
50
50
43.2111
43.2111
46.4818
46.4818
44.8166
44.8166
55.7829
55.7829
50
50
43.2111
43.2111
53.7845
53.7845
51.8578
51.8578
50
50
48.2088
48.2088
43.2111
43.2111
51.8578
51.8578
46.4818
46.4818
40.1706
40.1706
46.4818
46.4818
41.6631
41.6631
57.8555
57.8555
40.1706
40.1706
48.2088
48.2088
43.2111
43.2111
44.8166
44.8166
50
50
38.7315
38.7315
41.6631
41.6631
53.7845
53.7845
40.1706
40.1706
38.7315
38.7315
50
50
37.344
37.344
44.8166
44.8166
50
50
48.2088
48.2088
36.0062
36.0062
48.2088
48.2088
55.7829
55.7829
38.7315
38.7315
43.2111
43.2111
48.2088
48.2088
48.2088
48.2088
48.2088
48.2088
46.4818
46.4818
46.4818
46.4818
46.4818
46.4818
44.8166
44.8166
40.1706
40.1706
46.4818
46.4818
57.8555
57.8555
48.2088
48.2088
40.1706
40.1706
38.7315
38.7315
43.2111
43.2111
46.4818
46.4818
38.7315
38.7315
40.1706
40.1706
41.6631
41.6631
44.8166
44.8166
41.6631
41.6631
37.344
37.344
41.6631
41.6631
41.6631
41.6631
55.7829
55.7829
62.2346
62.2346
40.1706
40.1706
40.1706
40.1706
51.8578
51.8578
51.8578
51.8578
50
50
50
50
40.1706
40.1706
40.1706
40.1706
46.4818
46.4818
37.344
37.344
46.4818
46.4818
41.6631
41.6631
37.344
37.344
38.7315
38.7315
36.0062
36.0062
34.7163
34.7163
33.4726
33.4726
37.344
37.344
86.4222
86.4222
80.3411
80.3411
83.3262
83.3262
72.0123
72.0123
69.4326
69.4326
69.4326
69.4326
66.9452
66.9452
83.3262
83.3262
83.3262
83.3262
80.3411
80.3411
83.3262
83.3262
69.4326
69.4326
80.3411
80.3411
72.0123
72.0123
80.3411
80.3411
66.9452
66.9452
69.4326
69.4326
80.3411
80.3411
69.4326
69.4326
69.4326
69.4326
66.9452
66.9452
64.547
64.547
80.3411
80.3411
77.463
77.463
74.6879
74.6879
60.0051
60.0051
74.6879
74.6879
69.4326
69.4326
64.547
64.547
74.6879
74.6879
77.463
77.463
74.6879
74.6879
72.0123
72.0123
60.0051
60.0051
60.0051
60.0051
69.4326
69.4326
72.0123
72.0123
72.0123
72.0123
60.0051
60.0051
72.0123
72.0123
64.547
64.547
60.0051
60.0051
64.547
64.547
72.0123
72.0123
62.2346
62.2346
57.8555
57.8555
64.547
64.547
62.2346
62.2346
69.4326
69.4326
62.2346
62.2346
64.547
64.547
55.7829
55.7829
62.2346
62.2346
66.9452
66.9452
60.0051
60.0051
64.547
64.547
62.2346
62.2346
66.9452
66.9452
60.0051
60.0051
66.9452
66.9452
72.0123
72.0123
60.0051
60.0051
66.9452
66.9452
57.8555
57.8555
62.2346
62.2346
69.4326
69.4326
64.547
64.547
60.0051
60.0051
74.6879
74.6879
57.8555
57.8555
62.2346
62.2346
66.9452
66.9452
64.547
64.547
60.0051
60.0051
62.2346
62.2346
55.7829
55.7829
64.547
64.547
66.9452
66.9452
57.8555
57.8555
64.547
64.547
51.8578
51.8578
64.547
64.547
55.7829
55.7829
57.8555
57.8555
57.8555
57.8555
60.0051
60.0051
57.8555
57.8555
57.8555
57.8555
66.9452
66.9452
60.0051
60.0051
64.547
64.547
57.8555
57.8555
62.2346
62.2346
64.547
64.547
51.8578
51.8578
57.8555
57.8555
64.547
64.547
51.8578
51.8578
44.8166
44.8166
62.2346
62.2346
60.0051
60.0051
60.0051
60.0051
53.7845
53.7845
60.0051
60.0051
57.8555
57.8555
53.7845
53.7845
50
50
57.8555
57.8555
55.7829
55.7829
55.7829
55.7829
51.8578
51.8578
55.7829
55.7829
60.0051
60.0051
51.8578
51.8578
53.7845
53.7845
50
50
66.9452
66.9452
55.7829
55.7829
53.7845
53.7845
53.7845
53.7845
60.0051
60.0051
50
50
69.4326
69.4326
51.8578
51.8578
64.547
64.547
53.7845
53.7845
51.8578
51.8578
55.7829
55.7829
53.7845
53.7845
66.9452
66.9452
100
96.4176
96.4176
92.9635
92.9635
86.4222
86.4222
83.3262
83.3262
80.3411
80.3411
89.6332
89.6332
80.3411
80.3411
77.463
77.463
74.6879
74.6879
74.6879
74.6879
72.0123
72.0123
72.0123
72.0123
72.0123
72.0123
69.4326
69.4326
69.4326
69.4326
66.9452
66.9452
64.547
64.547
62.2346
62.2346
69.4326
69.4326
66.9452
66.9452
64.547
64.547
62.2346
62.2346
60.0051
60.0051
64.547
64.547
62.2346
62.2346
57.8555
57.8555
60.0051
60.0051
60.0051
60.0051
55.7829
55.7829
53.7845
53.7845
55.7829
55.7829
53.7845
53.7845
57.8555
57.8555
69.4326
69.4326
62.2346
62.2346
51.8578
51.8578
55.7829
55.7829
51.8578
51.8578
55.7829
55.7829
53.7845
53.7845
50
50
51.8578
51.8578
60.0051
60.0051
51.8578
51.8578
57.8555
57.8555
57.8555
57.8555
55.7829
55.7829
50
50
53.7845
53.7845
50
50
48.2088
48.2088
51.8578
51.8578
48.2088
48.2088
55.7829
55.7829
46.4818
46.4818
44.8166
44.8166
55.7829
55.7829
48.2088
48.2088
51.8578
51.8578
50
50
43.2111
43.2111
53.7845
53.7845
51.8578
51.8578
50
50
50
50
43.2111
43.2111
48.2088
48.2088
41.6631
41.6631
41.6631
41.6631
40.1706
40.1706
50
50
48.2088
48.2088
38.7315
38.7315
46.4818
46.4818
46.4818
46.4818
44.8166
44.8166
40.1706
40.1706
38.7315
38.7315
37.344
37.344
37.344
37.344
36.0062
36.0062
48.2088
48.2088
36.0062
36.0062
44.8166
44.8166
34.7163
34.7163
44.8166
44.8166
43.2111
43.2111
34.7163
34.7163
43.2111
43.2111
33.4726
33.4726
43.2111
43.2111
41.6631
41.6631
38.7315
38.7315
33.4726
33.4726
32.2735
32.2735
34.7163
34.7163
41.6631
41.6631
41.6631
41.6631
32.2735
32.2735
33.4726
33.4726
33.4726
33.4726
32.2735
32.2735
41.6631
41.6631
31.1173
31.1173
32.2735
32.2735
31.1173
31.1173
31.1173
31.1173
30.0026
30.0026
31.1173
31.1173
40.1706
40.1706
30.0026
30.0026
40.1706
40.1706
28.9278
28.9278
30.0026
30.0026
41.6631
41.6631
28.9278
28.9278
28.9278
28.9278
27.8914
27.8914
27.8914
27.8914
27.8914
27.8914
26.8923
26.8923
27.8914
27.8914
38.7315
38.7315
40.1706
40.1706
38.7315
38.7315
25.9289
25.9289
25
25
25.9289
25.9289
26.8923
26.8923
25.9289
25.9289
25.9289
25.9289
25
25
37.344
37.344
25
25
36.0062
36.0062
25
25
24.1044
24.1044
24.1044
24.1044
24.1044
24.1044
