# vtk DataFile Version 3.0
Tree
ASCII
DATASET POLYDATA
POINTS 30 float
0 0 0.0287941
-0.00108484 0.0168429 -0.0217502
-0.00516154 -0.00231368 0.00850432
-0.0175042 -0.0226999 -0.000345742
-0.00671551 -0.0100028 0.0022322
0.00754242 -0.0179196 -0.0192286
-0.00154846 -0.000694104 0.0227072
0.0268245 0.00230906 0.000501101
-0.00263239 -0.00117998 0.0184463
-0.0136619 0.0205079 0.00934509
0.0111593 -0.0053976 0.0117847
0.0195166 -0.0200664 0.00273204
-0.00440279 -0.00197357 0.0114869
-0.028224 0.00262611 -0.0039035
0.00309336 0.0058784 -0.00902372
0.0196612 0.00505056 -0.0195193
-0.0035443 -0.0110683 -0.0100163
-0.00761084 -0.00702226 -0.0231174
0.0187379 0.00336605 0.00383052
0.0203226 0.0170935 -0.00372749
-0.000464539 -0.000208231 0.026968
0.0131111 0.0143551 0.0181986
-0.00125839 0.00484795 -0.00100788
-0.00263625 0.0236794 -0.00560383
-0.0104462 0.00614691 0.0150828
-0.0210851 0.00639785 0.014235
-0.00394206 -0.0124668 -0.00183233
0.00697893 -0.0255478 -0.00317811
0.00769385 0.0108853 0.0171038
0.00927884 0.0186068 0.00426645
LINES 29 87
2 14 1
2 12 2
2 4 3
2 2 4
2 16 5
2 20 6
2 18 7
2 6 8
2 24 9
2 6 10
2 10 11
2 8 12
2 12 13
2 22 14
2 14 15
2 26 16
2 16 17
2 10 18
2 18 19
2 0 20
2 28 21
2 2 22
2 22 23
2 8 24
2 24 25
2 4 26
2 26 27
2 20 28
2 28 29
CELL_DATA 29
SCALARS radius float
LOOKUP_TABLE default
0.496868
0.928508
0.447225
0.759887
0.504314
1.11476
0.44345
1.02198
0.451547
0.682471
0.457614
0.967885
0.473596
0.63617
0.512739
0.626921
0.490673
0.605544
0.512789
1.15537
0.379473
0.712504
0.470638
0.543669
0.409417
0.70428
0.468651
0.539448
0.467748
