# vtk DataFile Version 3.0
Tree
ASCII
DATASET POLYDATA
POINTS 4 float
0 0 0.0287941
-0.00108484 0.0168429 -0.0217502
-0.00516154 -0.00231368 0.00850432
-0.0175042 -0.0226999 -0.000345742
LINES 3 9
2 2 1
2 0 2
2 2 3
CELL_DATA 3
SCALARS radius float
LOOKUP_TABLE default
0.869628
1.05188
0.79696
