# vtk DataFile Version 3.0
Tree
ASCII
DATASET POLYDATA
POINTS 6 float
0 0 0.0287941
-0.00108484 0.0168429 -0.0217502
-0.00516154 -0.00231368 0.00850432
-0.0175042 -0.0226999 -0.000345742
-0.00671551 -0.0100028 0.0022322
0.00754242 -0.0179196 -0.0192286
LINES 5 15
2 2 1
2 0 2
2 4 3
2 2 4
2 4 5
CELL_DATA 5
SCALARS radius float
LOOKUP_TABLE default
0.774527
1.08265
0.692537
0.930008
0.778727
