# vtk DataFile Version 3.0
Tree
ASCII
DATASET POLYDATA
POINTS 8 float
0 0 0.0287941
-0.00108484 0.0168429 -0.0217502
-0.00516154 -0.00231368 0.00850432
-0.0175042 -0.0226999 -0.000345742
-0.00671551 -0.0100028 0.0022322
0.00754242 -0.0179196 -0.0192286
-0.00154846 -0.000694104 0.0227072
0.0268245 0.00230906 0.000501101
LINES 7 21
2 2 1
2 6 2
2 4 3
2 2 4
2 4 5
2 0 6
2 6 7
CELL_DATA 7
SCALARS radius float
LOOKUP_TABLE default
0.719788
1.00614
0.643593
0.864281
0.723692
1.09746
0.671866
