# vtk DataFile Version 3.0
Tree
ASCII
DATASET POLYDATA
POINTS 10 float
0 0.0287941 0
-0.0126607 -0.0251748 0
0.00423547 0.00213237 0
0.0259787 -0.0201673 0
-0.00208886 0.02004 0
-0.0230888 0.017684 0
-0.000626657 0.0261679 0
0.0234609 0.0278788 0
-0.0113544 0.0154728 0
-0.0277715 -0.00803917 0
LINES 9 27
2 2 1
2 4 2
2 2 3
2 6 4
2 8 5
2 0 6
2 6 7
2 4 8
2 8 9
CELL_DATA 9
SCALARS radius float
LOOKUP_TABLE default
0.688401
0.864043
0.683163
1.02766
0.53167
1.08223
0.566948
0.760715
0.661856
