# vtk DataFile Version 3.0
Tree
ASCII
DATASET POLYDATA
POINTS 68 float
0 0.0287941 0
-0.0126607 -0.0251748 0
0.00423547 0.00213237 0
0.0259787 -0.0201673 0
-0.00208886 0.02004 0
-0.0230888 0.017684 0
-0.000626657 0.0261679 0
0.0234609 0.0278788 0
-0.0113544 0.0154728 0
-0.0277715 -0.00803917 0
0.00440476 0.0102646 0
0.0248694 0.00521801 0
0.000584411 -0.0118647 0
0.00567841 -0.024451 0
-0.0213202 -0.0047847 0
-0.018803 -0.0165692 0
0.0163989 0.0241142 0
0.025768 0.016389 0
-0.0213376 -0.0122665 0
-0.0277377 -0.0287649 0
-0.000187997 0.0280062 0
-0.0109378 0.0282299 0
0.00143954 -0.00384173 0
-0.00660784 -0.00554711 0
-0.0170218 0.00741038 0
-0.0269212 0.00852779 0
0.0159869 -0.0152911 0
0.0151431 -0.0282376 0
0.014371 -0.00999766 0
0.0271084 -0.0110833 0
-0.013508 0.0124091 0
-0.00722621 0.00214039 0
0.0203776 0.00404537 0
0.0263683 -0.00329567 0
0.0117956 0.00856903 0
0.0172645 0.0137013 0
-0.0204826 0.0190241 0
-0.0271918 0.024997 0
0.0242807 0.0167011 0
0.028487 0.010882 0
0.0227695 -0.0205966 0
0.0287911 -0.0286667 0
-0.0043784 -0.00657035 0
-0.0101418 -0.0116378 0
0.00675429 0.0243065 0
0.00953057 0.0180069 0
-0.00509265 -0.0216583 0
-0.00378697 -0.0259925 0
-0.02276 -0.0217607 0
-0.0191033 -0.0273189 0
-0.0206155 7.34199e-05 0
-0.0270325 -0.000571521 0
0.0113355 -0.00483929 0
0.0180277 -0.0034772 0
0.000840949 -0.0094578 0
0.00760505 -0.0139596 0
-0.0243443 0.0201667 0
-0.0285237 0.0179851 0
-0.0226881 -0.015204 0
-0.0282408 -0.0149384 0
-0.0208269 -0.00138402 0
-0.0148962 -0.00497277 0
0.00245667 0.0131973 0
-0.00190827 0.00677609 0
-0.00399943 -0.0176114 0
-0.0114766 -0.0172359 0
0.00855223 -0.00107001 0
0.0132622 0.000671196 0
LINES 67 201
2 46 1
2 10 2
2 40 3
2 6 4
2 36 5
2 20 6
2 16 7
2 4 8
2 14 9
2 62 10
2 32 11
2 54 12
2 12 13
2 60 14
2 18 15
2 44 16
2 38 17
2 14 18
2 48 19
2 0 20
2 20 21
2 2 22
2 42 23
2 30 24
2 24 25
2 28 26
2 26 27
2 52 28
2 28 29
2 8 30
2 30 31
2 34 32
2 32 33
2 10 34
2 34 35
2 8 36
2 56 37
2 16 38
2 38 39
2 26 40
2 40 41
2 22 42
2 42 43
2 6 44
2 44 45
2 64 46
2 46 47
2 58 48
2 48 49
2 24 50
2 50 51
2 66 52
2 52 53
2 22 54
2 54 55
2 36 56
2 56 57
2 18 58
2 58 59
2 50 60
2 60 61
2 4 62
2 62 63
2 12 64
2 64 65
2 2 66
2 66 67
CELL_DATA 67
SCALARS radius float
LOOKUP_TABLE default
0.425609
0.868421
0.345285
1.10062
0.266851
1.13969
0.320889
0.810475
0.334947
0.920239
0.327925
0.617477
0.386561
0.669203
0.335175
0.501824
0.281036
0.639975
0.459513
1.14557
0.28454
0.700747
0.278372
0.734272
0.322625
0.589882
0.407542
0.638667
0.380878
0.754789
0.324347
0.457057
0.391956
0.499157
0.306841
0.467794
0.354074
0.453602
0.414342
0.516224
0.458523
0.416621
0.370219
0.527852
0.274579
0.501098
0.365255
0.561589
0.431045
0.712894
0.310025
0.661871
0.308771
0.647751
0.33127
0.436847
0.339052
0.607732
0.36176
0.692788
0.320161
0.928662
0.278477
0.562172
0.372873
0.677391
0.275362
