# vtk DataFile Version 3.0
Tree
ASCII
DATASET POLYDATA
POINTS 12 float
0 0.0287941 0
-0.0126607 -0.0251748 0
0.00423547 0.00213237 0
0.0259787 -0.0201673 0
-0.00208886 0.02004 0
-0.0230888 0.017684 0
-0.000626657 0.0261679 0
0.0234609 0.0278788 0
-0.0113544 0.0154728 0
-0.0277715 -0.00803917 0
0.00440476 0.0102646 0
0.0248694 0.00521801 0
LINES 11 33
2 2 1
2 10 2
2 2 3
2 6 4
2 8 5
2 0 6
2 6 7
2 4 8
2 8 9
2 4 10
2 10 11
CELL_DATA 11
SCALARS radius float
LOOKUP_TABLE default
0.660727
0.829309
0.655699
1.04351
0.507539
1.09002
0.541525
0.726188
0.631816
0.909911
0.567733
