# vtk DataFile Version 3.0
Tree
ASCII
DATASET POLYDATA
POINTS 14 float
0 0.0287941 0
-0.0126607 -0.0251748 0
0.00423547 0.00213237 0
0.0259787 -0.0201673 0
-0.00208886 0.02004 0
-0.0230888 0.017684 0
-0.000626657 0.0261679 0
0.0234609 0.0278788 0
-0.0113544 0.0154728 0
-0.0277715 -0.00803917 0
0.00440476 0.0102646 0
0.0248694 0.00521801 0
0.000584411 -0.0118647 0
0.00567841 -0.024451 0
LINES 13 39
2 12 1
2 10 2
2 2 3
2 6 4
2 8 5
2 0 6
2 6 7
2 4 8
2 8 9
2 4 10
2 10 11
2 2 12
2 12 13
CELL_DATA 13
SCALARS radius float
LOOKUP_TABLE default
0.632067
0.886685
0.627085
1.06194
0.487593
1.10215
0.520822
0.69765
0.606987
0.950231
0.543877
0.766609
0.582859
