# vtk DataFile Version 3.0
Tree
ASCII
DATASET POLYDATA
POINTS 1732 float
40693.5 56318.5 68.45
40693.5 56318.5 2568.45
34443.5 55443.5 6443.45
33438.5 52817.5 12801.5
33740 53605.3 10894.1
37151.5 52322.5 13543.5
33667.6 52915.2 12610.4
34428.5 51827.5 15523.5
33516.4 52850.7 12736.5
28983.5 49599.5 15771.5
34506.2 51946.9 14883.8
38636.5 49104.5 18245.4
34392 51765.9 15405.4
33191.5 49847.5 19730.4
29437.2 50194.9 14616.2
24776.4 47867.5 14533.5
28940.4 49654.4 15603.9
26261.5 47619.5 18741.4
37687.8 49623.2 18274.6
39378.5 48114.5 21711.4
38319.1 49092.5 18125.7
42843.5 44154.5 16265.5
39270.2 48374.3 20646
42348.5 46629.5 21711.4
32925.8 50128.8 18887.5
30468.5 48857.5 20968.4
27128.9 48216.8 18020.4
27745.5 47867.5 21215.4
33720.4 54121.4 9451.09
30193.5 52443.4 10943.5
33111.8 49931.9 19477.5
35913.5 49847.5 20226.4
39337.3 48213.2 21306.5
37398.5 49352.5 23196.4
37549.2 48999.3 22645.1
34181.5 49352.5 23443.4
26521.7 47798.7 18525.1
22795.4 45887.5 17256.4
42258.8 44572.6 17030.9
44081.5 42174.5 17256.4
41752.2 46780.5 21137.1
43833.5 44897.5 20473.4
43097.2 43469.5 17134.6
42843.5 40689.5 14286.5
37378.9 49212.6 23107
36160.5 49599.5 25423.5
30354.5 52465.6 10967
27745.5 51084.5 12306.5
36095.4 49398.6 25155.1
31953.5 49352.5 30621.5
31224.7 49302.5 20794.5
29726.5 48857.5 24928.4
31962.4 49505.8 30188.8
27251.5 49847.5 35323.5
28664.8 49745 33783.1
22943.5 47693.4 32693.5
23913.3 46460.9 17637
20073.4 43164.5 22453.4
30011.9 49716.8 32873.5
30715.5 50589.5 39530.5
39366.2 48144.1 21589.9
40368.5 48362.5 26166.5
31956.2 49398.5 30491.7
37151.5 48609.5 35076.5
22992.8 45894.9 17312.9
21063.4 43659.5 16513.4
37074.1 48447 34375
43091.5 46877.5 37303.5
43077.7 41805.3 15657.9
44576.5 38957.5 15771.5
41584.4 46960.9 36347.6
46061.5 41679.5 35570.5
43444.7 45094 20825.9
45070.5 42669.5 21711.4
24155.7 47544 32801.5
20568.4 42669.5 31363.5
27511.2 48000.2 20001.3
24033.4 46382.5 22700.4
20792.8 43017.7 21900.8
18836.4 38462.5 25670.5
21644.6 44131.8 31794.9
22053.4 38462.5 35818.5
44735.6 42908.3 21333.7
45813.5 39699.5 20721.4
44638.9 42900.9 36296.6
45813.5 38709.5 39036.5
21963 42396.4 33517.8
24528.4 42422.5 40025.5
44970 42741.1 21598.1
45318.5 42917.5 25918.5
45461.1 39966.9 38214.5
45318.5 33512.5 35570.5
45455.2 39023.2 38812.9
43338.5 33759.5 42006.5
24112.9 41791.8 38822.8
26508.5 37967.5 43985.5
25076.7 46867.8 21890.7
24776.4 47867.5 26908.5
45457.1 35903 36119.8
46555.5 34007.5 29630.5
22022.7 39800 35036.2
21311.4 34007.5 31363.5
43648.2 34698.2 40704.6
40863.5 28809.5 39778.5
26173.6 38203 42626.3
28736.5 32274.5 44233.5
21509.3 44054.1 16862.5
19578.4 40194.5 18245.4
20099.7 40509 18114.6
19578.4 34997.5 19978.4
19886.4 36459.5 19112.8
21558.4 30294.5 16265.5
19824.5 35208.5 19887.7
21311.4 29552.5 23691.4
21360.3 30455.9 22456.5
24528.4 25097.5 22206.4
45185.6 33725.8 35473.9
43943.4 27693.5 33193.4
44241 39102.7 15775.4
45070.5 34502.5 16018.5
42639.4 46902.5 37016.7
43585.5 44154.5 41015.5
44228.7 28854.7 33067.8
43585.5 24354.4 27898.5
21780.8 37830.6 33787.5
24528.4 32522.5 36066.5
28149.9 33592.7 43250.2
30221.5 28562.5 40768.5
20461.9 43085.2 22155
21063.4 45392.5 25423.5
44786.6 36157.7 15538.9
45813.5 31532.5 10573.5
37170.8 48487.4 34987.9
38140.5 48362.5 40273.5
43202.7 44237.5 40771.4
43091.5 40689.5 45470.5
29696.7 29470.1 40710.8
30468.5 25344.5 35570.5
30167.8 25720.9 35686
29973.5 22127.4 29878.5
39820.7 48442.1 25381.2
38388.5 49352.5 29383.5
45634.7 42045.9 35788.3
46555.5 39947.5 30373.5
43835 25129.5 27959.9
43833.5 22622.4 22948.4
43418.2 22634.4 23699.1
41853.5 19157.4 19483.4
21713.8 30565.5 16785.8
23785.4 25097.5 15276.5
22663.7 28374 22756.2
25270.5 25592.5 27898.5
30657.4 22929.5 31263
34428.5 19899.4 26908.5
23923 25889.8 16041.9
27745.5 20147.4 16513.4
20806.1 44856 25213.7
20568.4 45639.5 28393.5
21358.5 35114.4 31742.5
20073.4 34254.5 26908.5
21415.2 34134.3 31363.2
22548.4 30047.5 29383.5
24602 42278.9 39898.4
27745.5 43659.5 44480.5
43012.8 43258.2 42577.7
40943.4 44693.4 47443.4
40263.3 48345.9 26111.5
42348.5 47619.5 30373.5
27550.3 49679.7 35092.4
25765.5 47867.5 38293.5
24956.7 26509.9 27567.4
26756.5 26087.5 31858.5
29739.4 49033.4 24767.9
28488.5 49104.5 27898.5
31376.4 50066.9 36393.7
34181.5 50094.5 38788.5
37532.3 48430.8 39504.8
35666.5 48609.5 44976.5
45085.8 43216.4 25063.8
44328.5 45392.5 28145.5
21669.8 30423.8 16337.8
21806.4 29799.5 12801.5
44110.6 27737.2 31535.5
41110.5 24354.4 31611.5
45102.1 41817.3 21125.5
46061.5 40194.5 23443.4
45268 33593.5 35533.8
43833.5 30789.5 37055.5
43431.4 34041.1 41615.9
41853.5 35987.5 46461.5
46261.9 40332.8 30639.1
46308.5 39699.5 27651.5
30757.1 50246.4 38667
28241.5 48114.5 41758.5
45286.8 42968 25830.8
45813.5 42422.5 28145.5
22605.1 36238.2 34471.2
23538.4 36234.5 37798.5
45571.6 40419.6 20858.8
44576.5 39204.5 18741.4
45413.6 39351.9 38787.5
44823.5 37719.5 42253.5
21395.9 43676.5 20238.1
19826.4 41927.5 20226.4
22042.9 38917.3 35552.5
23291.4 38957.5 38293.5
44501 44702.2 26934.1
42843.5 46877.5 26908.5
21329.3 29934.2 23413.9
21311.4 30294.5 26166.5
26585.8 37955.3 43871.2
27993.5 37224.5 46955.5
44894.5 35528.7 15721.1
45813.5 34997.5 18741.4
43944.8 31149 36502.6
42348.5 28562.5 36560.5
38428.7 49106.7 28337.5
35913.5 49352.5 29630.5
24602 42278.9 39898.4
25023.5 45144.5 39778.5
25265.4 47312.3 23670.8
27003.5 48114.5 24928.4
45740.9 39915.5 20762.6
46555.5 36234.5 22700.4
42812.8 32931.6 40426.7
41110.5 31532.5 42995.5
20533 41356 17467.6
20073.4 38709.5 16265.5
43043.9 35680 43882.4
43338.5 37472.5 44976.5
28838.8 49223.2 27714.9
28488.5 49599.5 30373.5
25959.7 43620.6 41796.1
26756.5 45887.5 42748.5
41459.5 47948.7 29190.9
40615.5 48362.5 31363.5
26216.5 26214.2 30571.2
25023.5 29057.5 33591.5
20115.6 41660.4 23239.1
19083.4 42174.5 25670.5
25540.5 39036.1 41446.9
25518.5 35492.5 41263.5
42176.9 47617.7 30318.7
43091.5 46877.5 32600.5
41431.7 32048.9 42648.4
40121.5 32522.5 45470.5
25432.5 48306.2 32696.6
23291.4 48114.5 29878.5
42140.3 36147 45973
41606.5 37719.5 47946.5
19933.2 39194.3 18598.9
18588.4 38214.5 20968.4
24479.4 25490.2 21940.8
26013.5 23364.4 20968.4
40782.7 48315.8 31309.6
40368.5 48609.5 33343.5
24217 33456.4 36051.6
26013.5 32027.5 39036.5
45537.8 35156.9 17835.3
46308.5 32274.5 18741.4
30128.2 24148.3 32932.7
28241.5 23859.4 30868.5
20227.4 38868.4 16564.5
20073.4 35244.5 15771.5
29642.5 28320.7 38970.9
27003.5 28314.5 36313.5
42647 45694.1 36192.1
44328.5 45392.5 34333.5
25389.4 43057.1 40999.1
26508.5 41432.5 43491.5
46275.9 40142.8 29742.8
46555.5 36977.5 28888.5
26535 41846.8 43271.5
27993.5 41432.5 45470.5
42769.6 47147.7 32343.4
42843.5 47124.5 34581.5
30144.8 24808.8 34089.1
32200.5 23117.4 33591.5
19267.5 39107.4 24743.6
19083.4 35987.5 24433.4
28693.3 32648.6 44171.3
29726.5 32027.5 45966.5
31958.3 49435 30388.7
33191.5 49847.5 33838.5
25867.2 32080 38327.2
27498.5 30542.5 39283.5
46208.2 40077 32858.6
46555.5 38709.5 31858.5
27085.5 37591.9 44844.9
27993.5 35739.5 45223.5
21683 30466.3 16472.2
21558.4 33017.5 13543.5
27886.9 36101.1 45329.2
28983.5 34749.5 46708.5
18976.6 38525 25475.6
19083.4 36729.5 26660.5
42339.1 43427.4 45643.1
42443.4 42943.4 47443.4
45862.6 41251.2 34903.5
46555.5 38709.5 35076.5
29168.9 49903 15149.6
30715.5 49847.5 17503.4
21872.7 38579 34262
20568.4 38709.5 32106.5
36618.5 50738.6 16445.5
38883.5 50342.5 16265.5
21854.7 42986.5 32932
20815.4 40937.5 32600.5
40014.1 47682.7 17767.7
41606.5 47867.5 17750.4
46153.6 33908 31326.8
46061.5 32027.5 30126.5
33161.2 49879.6 19634.3
33438.5 49352.5 21711.4
37845 48340.5 37066.4
39873.5 47867.5 38540.5
41504.3 46239.8 17764.6
43091.5 45639.5 18493.4
45982.3 32188.7 30450.6
45318.5 29552.5 30126.5
24669.4 46864.6 17616.4
23538.4 46382.5 15523.5
29241 49137.8 39650.7
27498.5 48114.5 39530.5
23169.6 45592.5 18611.5
23538.4 45392.5 20968.4
45100.9 38798.6 40728.3
44823.5 39947.5 42995.5
42265.2 46603.2 21634.3
43585.5 45639.5 22948.4
42211.7 30994.7 39620.7
42348.5 30047.5 38540.5
24072.5 46478.8 22620.5
22300.4 46134.5 23691.4
42735.5 25893.6 31160.9
42348.5 24354.4 29630.5
43010.6 40782.9 14483.4
43585.5 39204.5 13048.5
21398.2 34428.3 31477
22795.4 31779.5 32600.5
19734.8 40288.9 18206.2
19083.4 40194.5 19978.4
43202.7 44237.5 40771.4
41358.5 45144.5 43985.5
30346.5 49116 23890.9
31211.5 49104.5 26166.5
43587.3 24454.1 27846.7
42595.5 22622.4 26908.5
45087.5 35417.2 16355.4
45318.5 36977.5 17503.4
24435 32802.7 36062
24033.4 31532.5 34581.5
24685.4 47626.1 25939.4
23043.4 47372.5 27155.5
22372.3 31612.8 30729.8
23538.4 29799.5 31363.5
45013.3 34732.1 15852.6
45070.5 33017.5 15028.5
23876.6 25236.6 15390.7
24528.4 23859.4 13791.5
19431.4 42243.6 25152.6
19578.4 43659.5 26660.5
26729.3 35368.6 42392.8
26508.5 33759.5 41758.5
45739.7 42415.6 28046.1
46061.5 41927.5 29878.5
23471 35923.7 37024.9
24528.4 34749.5 38788.5
28408.1 49759.8 30102.3
27993.5 50342.5 31611.5
30658.9 23300.9 31844.8
33438.5 21879.4 30868.5
18895.3 38488.7 25588.7
19083.4 38957.5 27155.5
27982.4 51014 12283.3
26756.5 50094.5 13048.5
45724.1 34339.1 34192.1
45813.5 32027.5 33343.5
26748.2 47641.2 20924
26756.5 47619.5 22948.4
43877.9 27897.9 33140.9
42843.5 26582.5 33096.5
45976.2 41970.1 29825.9
46061.5 41679.5 31115.5
26689.2 26054.3 31526.3
27993.5 25097.5 32353.5
20281.3 35540.1 15949.9
20568.4 33759.5 15771.5
30319 26655.4 37383.4
31458.5 25344.5 37055.5
46007.6 34193.6 32340.6
46308.5 35739.5 30868.5
32148 51854.7 13749.2
31953.5 51332.5 15276.5
43612 44658.5 36556.1
44823.5 44154.5 37798.5
22379.9 44831.4 19888.9
22053.4 44649.5 21215.4
25714.8 23666.8 20855.1
26261.5 22622.4 19730.4
20795.1 45463.2 28197.8
21063.4 45639.5 29878.5
32719.9 20832.4 27333.7
32943.5 20394.4 26166.5
21783.3 43375.9 32545.4
21806.4 43907.5 34333.5
26363.4 47661.6 18714.4
25765.5 46877.5 19978.4
22694.7 42444.7 35376.1
23043.4 43907.5 36560.5
43986.3 42244.9 17329.1
44823.5 40937.5 17750.4
24853.1 44872.5 39599.5
24776.4 46629.5 39036.5
25013.2 47550.5 25036.5
26013.5 48362.5 26166.5
21390.7 29681.5 23638.5
22300.4 28314.5 25175.5
[...]
CELL_DATA 1731
SCALARS radius float
LOOKUP_TABLE default
2.122e-314
100
100
100
74.6879
74.6879
69.4326
69.4326
66.9452
66.9452
64.547
64.547
60.0051
60.0051
53.7845
53.7845
46.4818
46.4818
55.7829
55.7829
53.7845
53.7845
50
50
53.7845
53.7845
41.6631
41.6631
83.3262
83.3262
50
50
48.2088
48.2088
46.4818
46.4818
38.7315
38.7315
46.4818
46.4818
44.8166
44.8166
44.8166
44.8166
41.6631
41.6631
80.3411
80.3411
40.1706
40.1706
48.2088
48.2088
32.2735
32.2735
27.8914
27.8914
34.7163
34.7163
28.9278
28.9278
46.4818
46.4818
30.0026
30.0026
33.4726
33.4726
25
25
41.6631
41.6631
20.8316
20.8316
41.6631
41.6631
24.1044
24.1044
38.7315
38.7315
27.8914
27.8914
21.6055
21.6055
38.7315
38.7315
16.7363
16.7363
18.672
18.672
37.344
37.344
16.1367
16.1367
15.0013
15.0013
16.1367
16.1367
33.4726
33.4726
14.4639
14.4639
17.3581
17.3581
14.4639
14.4639
12.9644
12.9644
31.1173
31.1173
25.9289
25.9289
23.2409
23.2409
22.4083
22.4083
19.3657
19.3657
12.9644
12.9644
36.0062
36.0062
19.3657
19.3657
11.2042
11.2042
15.5587
15.5587
10.8028
10.8028
26.8923
26.8923
34.7163
34.7163
24.1044
24.1044
17.3581
17.3581
9.33599
9.33599
7.50064
7.50064
41.6631
41.6631
16.1367
16.1367
9.00154
9.00154
8.06837
8.06837
22.4083
22.4083
16.7363
16.7363
5.60208
5.60208
19.3657
19.3657
24.1044
24.1044
15.0013
15.0013
13.4461
13.4461
14.4639
14.4639
16.1367
16.1367
38.7315
38.7315
24.1044
24.1044
14.4639
14.4639
41.6631
41.6631
25.9289
25.9289
20.0853
20.0853
33.4726
33.4726
20.0853
20.0853
10.8028
10.8028
34.7163
34.7163
12.5
12.5
13.9457
13.9457
13.9457
13.9457
25
25
31.1173
31.1173
14.4639
14.4639
33.4726
33.4726
15.5587
15.5587
30.0026
30.0026
16.7363
16.7363
32.2735
32.2735
18.672
18.672
11.6204
11.6204
33.4726
33.4726
11.6204
11.6204
36.0062
36.0062
13.9457
13.9457
31.1173
31.1173
32.2735
32.2735
13.9457
13.9457
27.8914
27.8914
12.9644
12.9644
40.1706
40.1706
13.4461
13.4461
37.344
37.344
12.9644
12.9644
25.9289
25.9289
13.9457
13.9457
34.7163
34.7163
13.4461
13.4461
25.9289
25.9289
11.6204
11.6204
25
25
15.5587
15.5587
36.0062
36.0062
13.4461
13.4461
30.0026
30.0026
6.0261
6.0261
25.9289
25.9289
8.67907
8.67907
20.0853
20.0853
13.9457
13.9457
13.4461
13.4461
12.9644
12.9644
32.2735
32.2735
6.48222
6.48222
24.1044
24.1044
10.0426
10.0426
31.1173
31.1173
12.5
12.5
14.4639
14.4639
11.2042
11.2042
20.8316
20.8316
10.8028
10.8028
23.2409
23.2409
15.5587
15.5587
15.5587
15.5587
50
50
16.1367
16.1367
57.8555
57.8555
19.3657
19.3657
51.8578
51.8578
11.6204
11.6204
48.2088
48.2088
23.2409
23.2409
50
50
11.2042
11.2042
36.0062
36.0062
23.2409
23.2409
32.2735
32.2735
13.4461
13.4461
43.2111
43.2111
12.5
12.5
32.2735
32.2735
10.0426
10.0426
40.1706
40.1706
13.9457
13.9457
25
25
16.7363
16.7363
44.8166
44.8166
8.67907
8.67907
31.1173
31.1173
12.9644
12.9644
27.8914
27.8914
12.5
12.5
32.2735
32.2735
18.672
18.672
24.1044
24.1044
11.6204
11.6204
28.9278
28.9278
12.9644
12.9644
37.344
37.344
5.81022
5.81022
22.4083
22.4083
72.0123
72.0123
13.9457
13.9457
34.7163
34.7163
10.4158
10.4158
27.8914
27.8914
12.5
12.5
25
25
7.77933
7.77933
12.0522
12.0522
57.8555
57.8555
19.3657
19.3657
31.1173
31.1173
15.0013
15.0013
22.4083
22.4083
5.02132
5.02132
20.8316
20.8316
37.344
37.344
17.3581
17.3581
41.6631
41.6631
12.9644
12.9644
30.0026
30.0026
18.0031
18.0031
26.8923
26.8923
12.5
12.5
12.5
12.5
10.0426
10.0426
25
25
34.7163
34.7163
12.0522
12.0522
27.8914
27.8914
69.4326
69.4326
13.4461
13.4461
40.1706
40.1706
17.3581
17.3581
33.4726
33.4726
8.36815
8.36815
25.9289
25.9289
10.8028
10.8028
13.9457
13.9457
33.4726
33.4726
26.8923
26.8923
10.8028
10.8028
32.2735
32.2735
12.0522
12.0522
20.0853
20.0853
31.1173
31.1173
10.0426
10.0426
15.0013
15.0013
31.1173
31.1173
25
25
24.1044
24.1044
28.9278
28.9278
53.7845
53.7845
22.4083
22.4083
30.0026
30.0026
51.8578
51.8578
23.2409
23.2409
34.7163
34.7163
62.2346
62.2346
7.50064
7.50064
26.8923
26.8923
7.77933
7.77933
33.4726
33.4726
74.6879
74.6879
10.8028
10.8028
33.4726
33.4726
86.4222
86.4222
10.4158
10.4158
19.3657
19.3657
48.2088
48.2088
9.68287
9.68287
23.2409
23.2409
89.6332
89.6332
16.7363
16.7363
22.4083
22.4083
86.4222
86.4222
13.9457
13.9457
22.4083
22.4083
51.8578
51.8578
12.9644
12.9644
23.2409
23.2409
33.4726
33.4726
15.0013
15.0013
31.1173
31.1173
43.2111
43.2111
12.5
12.5
20.8316
20.8316
12.0522
12.0522
72.0123
72.0123
20.0853
20.0853
22.4083
22.4083
34.7163
34.7163
7.23194
7.23194
8.36815
8.36815
21.6055
21.6055
37.344
37.344
9.33599
9.33599
15.5587
15.5587
23.2409
23.2409
31.1173
31.1173
44.8166
44.8166
15.0013
15.0013
25.9289
25.9289
43.2111
43.2111
15.0013
15.0013
22.4083
22.4083
11.6204
11.6204
48.2088
48.2088
15.5587
15.5587
26.8923
26.8923
37.344
37.344
18.0031
18.0031
23.2409
23.2409
32.2735
32.2735
46.4818
46.4818
12.5
12.5
20.0853
20.0853
25
25
48.2088
48.2088
14.4639
14.4639
26.8923
26.8923
24.1044
24.1044
43.2111
43.2111
11.2042
11.2042
15.0013
15.0013
12.5
12.5
32.2735
32.2735
51.8578
51.8578
12.9644
12.9644
15.5587
15.5587
12.9644
12.9644
34.7163
34.7163
51.8578
51.8578
17.3581
17.3581
15.5587
15.5587
28.9278
28.9278
26.8923
26.8923
40.1706
40.1706
7.77933
7.77933
16.7363
16.7363
24.1044
24.1044
38.7315
38.7315
55.7829
55.7829
12.0522
12.0522
12.0522
12.0522
11.2042
11.2042
25
25
37.344
37.344
5.81022
5.81022
13.4461
13.4461
18.0031
18.0031
25.9289
25.9289
51.8578
51.8578
16.1367
16.1367
21.6055
21.6055
25
25
24.1044
24.1044
37.344
37.344
60.0051
60.0051
14.4639
14.4639
22.4083
22.4083
30.0026
30.0026
25
25
31.1173
31.1173
31.1173
31.1173
10.8028
10.8028
20.8316
20.8316
20.8316
20.8316
24.1044
24.1044
20.0853
20.0853
23.2409
23.2409
23.2409
23.2409
22.4083
22.4083
21.6055
21.6055
21.6055
21.6055
23.2409
23.2409
27.8914
27.8914
20.0853
20.0853
19.3657
19.3657
12.9644
12.9644
15.0013
15.0013
21.6055
21.6055
18.672
18.672
13.4461
13.4461
23.2409
23.2409
24.1044
24.1044
19.3657
19.3657
22.4083
22.4083
18.0031
18.0031
18.0031
18.0031
18.0031
18.0031
13.4461
13.4461
18.672
18.672
21.6055
21.6055
12.0522
12.0522
16.7363
16.7363
20.8316
20.8316
12.9644
12.9644
12.5
12.5
7.23194
7.23194
24.1044
24.1044
15.5587
15.5587
13.9457
13.9457
18.0031
18.0031
7.50064
7.50064
13.4461
13.4461
10.0426
10.0426
13.4461
13.4461
13.4461
13.4461
11.6204
11.6204
13.4461
13.4461
12.5
12.5
12.9644
12.9644
18.672
18.672
15.0013
15.0013
12.5
12.5
12.5
12.5
9.00154
9.00154
11.2042
11.2042
13.4461
13.4461
10.8028
10.8028
5.40139
5.40139
5.20789
5.20789
8.36815
8.36815
5.60208
5.60208
6.72307
6.72307
10.4158
10.4158
5.60208
5.60208
15.0013
15.0013
7.50064
7.50064
11.6204
11.6204
62.2346
62.2346
60.0051
60.0051
60.0051
60.0051
83.3262
83.3262
64.547
64.547
46.4818
46.4818
80.3411
80.3411
69.4326
69.4326
72.0123
72.0123
50
50
51.8578
51.8578
46.4818
46.4818
32.2735
32.2735
43.2111
43.2111
48.2088
48.2088
48.2088
48.2088
44.8166
44.8166
43.2111
43.2111
40.1706
40.1706
38.7315
38.7315
37.344
37.344
34.7163
34.7163
30.0026
30.0026
23.2409
23.2409
26.8923
26.8923
15.0013
15.0013
18.672
18.672
20.8316
20.8316
21.6055
21.6055
18.0031
18.0031
12.9644
12.9644
53.7845
53.7845
32.2735
32.2735
36.0062
36.0062
38.7315
38.7315
26.8923
26.8923
22.4083
22.4083
12.5
12.5
9.68287
9.68287
12.0522
12.0522
15.5587
15.5587
77.463
77.463
30.0026
30.0026
11.6204
11.6204
25
25
10.0426
10.0426
16.1367
16.1367
57.8555
57.8555
43.2111
43.2111
38.7315
38.7315
21.6055
21.6055
8.67907
8.67907
6.97286
6.97286
33.4726
33.4726
32.2735
32.2735
17.3581
17.3581
14.4639
14.4639
18.672
18.672
16.7363
16.7363
37.344
37.344
15.0013
15.0013
13.9457
13.9457
28.9278
28.9278
38.7315
38.7315
13.9457
13.9457
55.7829
55.7829
12.0522
12.0522
13.4461
13.4461
5.40139
5.40139
12.5
12.5
12.0522
12.0522
77.463
77.463
27.8914
27.8914
17.3581
17.3581
34.7163
34.7163
31.1173
31.1173
12.5
12.5
33.4726
33.4726
17.3581
17.3581
12.9644
12.9644
60.0051
60.0051
13.4461
13.4461
66.9452
66.9452
11.2042
11.2042
92.9635
92.9635
13.9457
13.9457
55.7829
55.7829
16.1367
16.1367
36.0062
36.0062
18.672
18.672
37.344
37.344
12.5
12.5
8.06837
8.06837
72.0123
72.0123
9.33599
9.33599
55.7829
55.7829
62.2346
62.2346
96.4176
96.4176
44.8166
44.8166
41.6631
41.6631
43.2111
43.2111
33.4726
33.4726
38.7315
38.7315
48.2088
48.2088
50
50
40.1706
40.1706
44.8166
44.8166
40.1706
40.1706
46.4818
46.4818
44.8166
44.8166
46.4818
46.4818
41.6631
41.6631
37.344
37.344
41.6631
41.6631
40.1706
40.1706
34.7163
34.7163
36.0062
36.0062
32.2735
32.2735
36.0062
36.0062
30.0026
30.0026
28.9278
28.9278
28.9278
28.9278
28.9278
28.9278
26.8923
26.8923
37.344
37.344
32.2735
32.2735
36.0062
36.0062
25.9289
25.9289
28.9278
28.9278
34.7163
34.7163
25
25
33.4726
33.4726
30.0026
30.0026
25.9289
25.9289
32.2735
32.2735
28.9278
28.9278
32.2735
32.2735
28.9278
28.9278
32.2735
32.2735
19.3657
19.3657
28.9278
28.9278
22.4083
22.4083
30.0026
30.0026
23.2409
23.2409
18.672
18.672
21.6055
21.6055
20.8316
20.8316
25
25
15.0013
15.0013
20.0853
20.0853
14.4639
14.4639
25.9289
25.9289
21.6055
21.6055
17.3581
17.3581
24.1044
24.1044
16.1367
16.1367
14.4639
14.4639
16.7363
16.7363
18.672
18.672
16.7363
16.7363
19.3657
19.3657
6.97286
6.97286
22.4083
22.4083
24.1044
24.1044
14.4639
14.4639
21.6055
21.6055
16.1367
16.1367
22.4083
22.4083
12.9644
12.9644
16.1367
16.1367
15.5587
15.5587
15.0013
15.0013
10.4158
10.4158
12.5
12.5
10.4158
10.4158
12.9644
12.9644
15.5587
15.5587
19.3657
19.3657
9.68287
9.68287
7.23194
7.23194
7.23194
7.23194
12.5
12.5
12.5
12.5
21.6055
21.6055
20.0853
20.0853
18.672
18.672
12.0522
12.0522
11.2042
11.2042
9.68287
9.68287
18.0031
18.0031
18.0031
18.0031
12.5
12.5
9.33599
9.33599
15.5587
15.5587
8.36815
8.36815
8.06837
8.06837
12.0522
12.0522
12.0522
12.0522
12.5
12.5
12.0522
12.0522
12.9644
12.9644
13.4461
13.4461
11.2042
11.2042
12.9644
12.9644
14.4639
14.4639
14.4639
14.4639
13.4461
13.4461
7.77933
7.77933
13.9457
13.9457
4.84144
4.84144
13.4461
13.4461
5.20789
5.20789
4.84144
4.84144
8.06837
8.06837
12.0522
12.0522
9.68287
9.68287
11.6204
11.6204
9.00154
9.00154
8.06837
8.06837
7.77933
7.77933
6.25
6.25
9.68287
9.68287
9.68287
9.68287
10.8028
10.8028
6.97286
6.97286
6.25
6.25
10.4158
10.4158
10.4158
10.4158
16.1367
16.1367
9.00154
9.00154
10.4158
10.4158
10.0426
10.0426
9.68287
9.68287
7.00259e-312
7.00259e-312
7.00259e-312
7.00259e-312
7.00259e-312
7.00259e-312
7.00259e-312
7.00259e-312
7.00259e-312
7.00259e-312
7.00259e-312
7.00259e-312
7.00259e-312
7.00259e-312
7.00259e-312
7.00259e-312
7.00259e-312
7.00259e-312
7.00259e-312
7.00259e-312
7.00259e-312
7.00259e-312
7.00259e-312
7.00259e-312
7.00259e-312
7.00259e-312
7.00259e-312
7.00259e-312
7.00259e-312
7.00259e-312
7.00259e-312
7.00259e-312
7.00259e-312
7.00259e-312
7.00259e-312
7.00259e-312
7.00259e-312
7.00259e-312
7.00259e-312
7.00259e-312
7.00259e-312
7.00259e-312
7.00259e-312
7.00259e-312
7.00259e-312
7.00259e-312
7.00259e-312
7.00259e-312
7.00259e-312
7.00259e-312
7.00259e-312
7.00259e-312
7.00259e-312
7.00259e-312
7.00259e-312
7.00259e-312
7.00259e-312
7.00259e-312
7.00259e-312
7.00259e-312
7.00259e-312
7.00259e-312
7.00259e-312
7.00259e-312
7.00259e-312
7.00259e-312
7.00259e-312
7.00259e-312
7.00259e-312
7.00259e-312
7.00259e-312
7.00259e-312
7.00259e-312
7.00259e-312
7.00259e-312
7.00259e-312
7.00259e-312
7.00259e-312
7.00259e-312
7.00259e-312
7.00259e-312
7.00259e-312
7.00259e-312
7.00259e-312
7.00259e-312
7.00259e-312
7.00259e-312
7.00259e-312
7.00259e-312
7.00259e-312
7.00259e-312
7.00259e-312
7.00259e-312
7.00259e-312
7.00259e-312
7.00259e-312
7.00259e-312
7.00259e-312
7.00259e-312
7.00259e-312
7.00259e-312
7.00259e-312
7.00259e-312
7.00259e-312
7.00259e-312
7.00259e-312
7.00259e-312
7.00259e-312
7.00259e-312
7.00259e-312
7.00259e-312
7.00259e-312
7.00259e-312
7.00259e-312
7.00259e-312
7.00259e-312
7.00259e-312
7.00259e-312
7.00259e-312
7.00259e-312
7.00259e-312
7.00259e-312
7.00259e-312
7.00259e-312
7.00259e-312
7.00259e-312
7.00259e-312
7.00259e-312
7.00259e-312
7.00259e-312
7.00259e-312
7.00259e-312
7.00259e-312
7.00259e-312
7.00259e-312
7.00259e-312
7.00259e-312
7.00259e-312
7.00259e-312
7.00259e-312
7.00259e-312
7.00259e-312
7.00259e-312
7.00259e-312
7.00259e-312
7.00259e-312
7.00259e-312
7.00259e-312
7.00259e-312
7.00259e-312
7.00259e-312
7.00259e-312
7.00259e-312
7.00259e-312
7.00259e-312
7.00259e-312
7.00259e-312
7.00259e-312
7.00259e-312
7.00259e-312
7.00259e-312
7.00259e-312
7.00259e-312
7.00259e-312
7.00259e-312
7.00259e-312
7.00259e-312
7.00259e-312
7.00259e-312
7.00259e-312
7.00259e-312
7.00259e-312
7.00259e-312
7.00259e-312
7.00259e-312
7.00259e-312
7.00259e-312
7.00259e-312
7.00259e-312
7.00259e-312
7.00259e-312
7.00259e-312
7.00259e-312
7.00259e-312
7.00259e-312
7.00259e-312
7.00259e-312
7.00259e-312
7.00259e-312
7.00259e-312
7.00259e-312
7.00259e-312
7.00259e-312
7.00259e-312
7.00259e-312
7.00259e-312
7.00259e-312
7.00259e-312
7.00259e-312
7.00259e-312
7.00259e-312
7.00259e-312
7.00259e-312
7.00259e-312
7.00259e-312
7.00259e-312
7.00259e-312
7.00259e-312
7.00259e-312
7.00259e-312
7.00259e-312
7.00259e-312
7.00259e-312
7.00259e-312
7.00259e-312
7.00259e-312
7.00259e-312
7.00259e-312
7.00259e-312
7.00259e-312
7.00259e-312
7.00259e-312
7.00259e-312
7.00259e-312
7.00259e-312
7.00259e-312
7.00259e-312
7.00259e-312
7.00259e-312
7.00259e-312
7.00259e-312
7.00259e-312
7.00259e-312
7.00259e-312
7.00259e-312
7.00259e-312
7.00259e-312
7.00259e-312
7.00259e-312
7.00259e-312
7.00259e-312
7.00259e-312
7.00259e-312
7.00259e-312
7.00259e-312
7.00259e-312
7.00259e-312
7.00259e-312
7.00259e-312
7.00259e-312
7.00259e-312
7.00259e-312
7.00259e-312
7.00259e-312
7.00259e-312
7.00259e-312
7.00259e-312
7.00259e-312
7.00259e-312
7.00259e-312
7.00259e-312
7.00259e-312
7.00259e-312
7.00259e-312
7.00259e-312
7.00259e-312
7.00259e-312
7.00259e-312
7.00259e-312
7.00259e-312
7.00259e-312
7.00259e-312
7.00259e-312
7.00259e-312
7.00259e-312
7.00259e-312
7.00259e-312
7.00259e-312
7.00259e-312
7.00259e-312
7.00259e-312
7.00259e-312
7.00259e-312
7.00259e-312
7.00259e-312
7.00259e-312
7.00259e-312
7.00259e-312
7.00259e-312
7.00259e-312
7.00259e-312
7.00259e-312
7.00259e-312
7.00259e-312
7.00259e-312
7.00259e-312
7.00259e-312
7.00259e-312
7.00259e-312
7.00259e-312
7.00259e-312
7.00259e-312
7.00259e-312
7.00259e-312
7.00259e-312
7.00259e-312
7.00259e-312
7.00259e-312
7.00259e-312
7.00259e-312
7.00259e-312
7.00259e-312
7.00259e-312
7.00259e-312
7.00259e-312
7.00259e-312
7.00259e-312
7.00259e-312
7.00259e-312
7.00259e-312
7.00259e-312
7.00259e-312
7.00259e-312
7.00259e-312
7.00259e-312
7.00259e-312
7.00259e-312
7.00259e-312
7.00259e-312
7.00259e-312
7.00259e-312
7.00259e-312
7.00259e-312
7.00259e-312
7.00259e-312
7.00259e-312
7.00259e-312
7.00259e-312
7.00259e-312
7.00259e-312
7.00259e-312
7.00259e-312
7.00259e-312
7.00259e-312
7.00259e-312
7.00259e-312
7.00259e-312
7.00259e-312
7.00259e-312
7.00259e-312
7.00259e-312
7.00259e-312
7.00259e-312
7.00259e-312
7.00259e-312
7.00259e-312
7.00259e-312
7.00259e-312
7.00259e-312
7.00259e-312
7.00259e-312
7.00259e-312
7.00259e-312
7.00259e-312
7.00259e-312
7.00259e-312
7.00259e-312
7.00259e-312
7.00259e-312
7.00259e-312
7.00259e-312
7.00259e-312
7.00259e-312
7.00259e-312
7.00259e-312
7.00259e-312
7.00259e-312
7.00259e-312
7.00259e-312
7.00259e-312
7.00259e-312
7.00259e-312
7.00259e-312
7.00259e-312
7.00259e-312
7.00259e-312
7.00259e-312
7.00259e-312
7.00259e-312
7.00259e-312
7.00259e-312
7.00259e-312
7.00259e-312
7.00259e-312
7.00259e-312
7.00259e-312
7.00259e-312
7.00259e-312
7.00259e-312
7.00259e-312
7.00259e-312
7.00259e-312
7.00259e-312
7.00259e-312
7.00259e-312
7.00259e-312
7.00259e-312
7.00259e-312
7.00259e-312
7.00259e-312
7.00259e-312
7.00259e-312
7.00259e-312
7.00259e-312
7.00259e-312
7.00259e-312
7.00259e-312
7.00259e-312
7.00259e-312
7.00259e-312
7.00259e-312
7.00259e-312
7.00259e-312
7.00259e-312
7.00259e-312
7.00259e-312
7.00259e-312
7.00259e-312
7.00259e-312
