# vtk DataFile Version 3.0
Tree
ASCII
DATASET POLYDATA
POINTS 1732 float
40693.5 56318.5 68.45
40693.5 56318.5 2568.45
34443.5 55443.5 6443.45
34181.5 53559.5 10821.5
34260.1 54124.7 9508.08
34181.5 52569.5 14038.5
33999.9 52518.9 13716.1
33191.5 49847.5 19730.4
34096.3 51411.7 16091.8
39130.5 49104.5 19730.4
38089.7 49300 18359.9
42843.5 45392.5 17998.4
33743.7 52900.6 12324.1
28983.5 49599.5 15771.5
29504.3 50209.6 14494.5
24776.4 47867.5 14533.5
38818.3 49163.2 19319.3
37398.5 49352.5 23196.4
28941.4 49634.8 15615.5
26261.5 47619.5 18741.4
40123 47686.9 18462.6
42348.5 46629.5 21711.4
37577.9 49298.5 22108.7
34181.5 49352.5 23443.4
33054.6 50131.2 18921.3
30468.5 48857.5 20968.4
34127 52554.3 13941.8
37645.5 51827.5 14780.5
42212.8 45665.5 17846.5
43585.5 42917.5 16018.5
30556.1 48974.4 20498.3
27745.5 47867.5 21215.4
42654.3 45474.4 17952.8
43833.5 44897.5 20473.4
43024.7 43260.3 16194.1
42843.5 40689.5 14286.5
34049.7 54541.1 8367.39
30193.5 52443.4 10943.5
29177.8 49876.2 15144.7
30715.5 49847.5 17503.4
36670.4 50562.3 16662.9
38883.5 50342.5 16265.5
30204.3 52439.8 10840.9
27745.5 51084.5 12306.5
33150.4 49932.6 19487.7
35170.5 49599.5 20968.4
25406.9 47874.7 14871.2
23538.4 46382.5 15523.5
37950 49257.9 21271.9
39625.5 48362.5 23691.4
23869.6 46577.5 15624.6
22300.4 44897.5 17503.4
42280.7 46520.9 21413.4
43585.5 45639.5 22948.4
30494.8 48892.6 20827.4
29726.5 48857.5 24928.4
28254.5 48097.7 21396.5
26756.5 47619.5 22948.4
37363 49354.4 23042.3
36160.5 49599.5 25423.5
22758.8 45351.1 17273.3
22548.4 44897.5 19483.4
43566.7 44923.3 19772.4
44823.5 42917.5 20721.4
43094.8 40890.7 14397.7
43585.5 39204.5 13048.5
22743.8 45089.3 19094.6
23538.4 45392.5 20968.4
36451.3 49512.4 25212.7
35418.5 49352.5 32106.5
43417.3 43020.3 16071.2
44823.5 40937.5 17750.4
36242.9 49295.7 31268.1
37893.5 48857.5 37798.5
22383.1 44926.1 17401
20568.4 42422.5 17503.4
37258.8 48984 33709
43091.5 46877.5 35818.5
37488.8 48931.3 37362.4
36408.5 49104.5 43738.5
39554.3 48465.7 23557.8
42348.5 47372.5 27403.5
35437.2 49411.5 31925.1
29973.5 50589.5 35323.5
30963 50028.9 34041.8
24943.5 49193.4 33693.4
43369.6 45613.5 22718.8
45813.5 41679.5 25918.5
26439.5 49061.5 33837.5
21806.4 43907.5 34333.5
43073.8 41601.6 14936.6
44576.5 38957.5 15771.5
20981.7 42754.9 17612.8
19083.4 36977.5 19483.4
23346.5 44742.9 34491.5
22548.4 38462.5 36560.5
23041.1 39326.6 35932.7
24528.4 32522.5 36066.5
30311 48972.3 24107.5
32200.5 49599.5 28145.5
45196.5 41800.5 25754.1
46308.5 36729.5 29630.5
30270.4 50421.3 34939
27498.5 48114.5 39530.5
23206 42251.4 35154.5
25270.5 40442.5 41510.5
44668.6 41032.2 17775
46061.5 38462.5 20226.4
20336.2 40790.6 18248.8
18588.4 39947.5 24681.4
45964.4 38481.5 28786.5
46555.5 38214.5 35570.5
46145 38438.6 35088
45318.5 38957.5 41510.5
24977 41453.6 39955.9
27745.5 43659.5 44480.5
25354 40482.4 41203
27993.5 35739.5 45223.5
27063.5 47840.7 22897.6
24776.4 47867.5 26908.5
45459 39172.9 19031.6
46308.5 32274.5 18741.4
19260.4 39823 22746.7
20073.4 34254.5 26908.5
24082.2 34563.7 36026.4
22548.4 31037.5 31115.5
22948.8 31505.9 31316.8
22300.4 28314.5 25175.5
24623.9 33235.3 36237.6
28983.5 28562.5 38788.5
23300 45301.5 20406.3
20815.4 44649.5 23691.4
19459.3 38121.4 19113
20568.4 33759.5 15771.5
46175.8 36899.7 29649.9
45813.5 32027.5 33343.5
45495.5 32684.6 32380.9
42843.5 27324.5 33591.5
27444.2 30025.5 37562.9
29726.5 25097.5 34581.5
30890.5 49227.8 25968
28736.5 49352.5 29630.5
19287.6 37128.9 19472
19826.4 32522.5 21463.4
45665.6 38739.6 38813
43585.5 44154.5 41015.5
43957.3 29575.7 33083.1
43833.5 24849.4 28145.5
28311.5 28152.9 36430
25765.5 26582.5 30868.5
29807.5 25594.1 34634.7
33438.5 21879.4 30868.5
41430.9 47753.4 26584.7
40615.5 48362.5 31363.5
23248.2 42998.9 34955.6
20568.4 38709.5 32106.5
43865.1 25586.9 28313.2
43833.5 22622.4 22948.4
44603.4 30881.4 32788.2
42348.5 30047.5 38540.5
42957.3 30723 37611.1
42348.5 33264.5 42995.5
32388.8 22674.5 31227.1
32943.5 20394.4 26166.5
25329.1 47772.1 25553
22053.4 46629.5 26166.5
20707.8 33875.9 15964
21806.4 30789.5 13791.5
21579.9 31391.9 14514.6
23043.4 26829.5 15276.5
45278.8 39085.9 41036.3
43338.5 41679.5 45718.5
23235.4 27135.9 15259.4
26013.5 21879.4 16265.5
45594 36433 18324.8
45070.5 34502.5 16018.5
45378.7 34839.6 16155.7
45813.5 31532.5 10573.5
43648.3 42981.6 41077.6
41358.5 45144.5 43985.5
22933.6 28452.7 26118
24528.4 25097.5 22206.4
44605.1 43062.7 24246.9
46061.5 40194.5 23443.4
45060.4 40012.2 39492.4
44576.5 43659.5 37055.5
43425.8 22650.7 23588.8
41853.5 19157.4 19483.4
43998.2 40797.7 44126.5
41606.5 37719.5 47946.5
42225.6 47342.4 27222.1
44328.5 45392.5 28145.5
33880.1 49708.6 33284.3
32943.5 50342.5 37551.5
26152.4 38694.7 42353.1
26013.5 34254.5 41263.5
44982.9 42389.9 25311.1
45566.5 42917.5 28145.5
23217.5 33327.9 33398.2
21063.4 34254.5 30373.5
43039.6 27758.2 33308
41110.5 24354.4 31611.5
27814.3 35831.8 44532.8
29726.5 32027.5 45966.5
21164.7 44554.9 23602.9
19578.4 43659.5 26660.5
46301 38353.5 35271.3
45318.5 34749.5 37055.5
25180.1 23456.3 15963.7
26261.5 22622.4 19730.4
20553.4 41361.9 17877.8
20073.4 38709.5 16265.5
27744.6 48483.2 38072.3
24776.4 46629.5 39036.5
27206.9 26876.5 33259.9
28241.5 23859.4 30868.5
24760.2 47868.3 26807
23291.4 48114.5 29878.5
45306.6 38996 41368.2
43585.5 37224.5 44233.5
45895.7 38427.6 20106.8
46555.5 36234.5 22700.4
22446.3 28371.3 25253.6
21806.4 28562.5 22453.4
28508.3 29148.4 38583.7
30221.5 29304.5 42253.5
20054.3 43928.1 25743.2
20568.4 45639.5 28393.5
26278.1 43123.7 42058.1
26756.5 45887.5 42748.5
40042.2 48290.1 24707
38883.5 48857.5 27651.5
32714.4 50232.7 36879
30715.5 50589.5 39530.5
29018 27124.7 35890.3
31458.5 25344.5 37055.5
19698.2 40603 20840.9
19083.4 42422.5 22948.4
21384.1 39758.7 33057
21311.4 36234.5 34085.5
43339.1 41687.8 45402.8
41693.4 43943.4 47443.4
40612.6 47772.8 33795.7
43091.5 46877.5 32600.5
41845.9 31492.6 40795.4
40615.5 31284.5 42500.5
22607 44955 19366.8
20568.4 43164.5 20226.4
22689 42026.8 34386
20568.4 42669.5 31363.5
23769.9 35992.6 35998.3
24528.4 34749.5 38788.5
31812.2 49464.6 27904.2
31953.5 49352.5 30621.5
40931.6 31430.5 42222.4
40121.5 32522.5 45470.5
19648.2 38888.6 18996.6
18588.4 38214.5 20968.4
26085.4 26523.3 31098.4
25270.5 25592.5 27898.5
45521.6 42575.1 27786.7
46061.5 41927.5 29878.5
42382.5 38431.3 46554.4
41853.5 35987.5 46461.5
42719.1 46845.8 33009.4
44328.5 45639.5 33096.5
27766.5 27852.4 35327.8
25023.5 29057.5 33591.5
31792 49436.4 29916.4
30221.5 50094.5 31611.5
25985.7 23043 19185.9
26261.5 23612.4 21711.4
30396.4 49925.2 31086
27993.5 50342.5 31611.5
25906 39454.4 42088.2
27251.5 39204.5 45223.5
23457.8 47792 29563.2
22300.4 46877.5 32106.5
26812.3 39451.7 44096.4
27993.5 41432.5 45470.5
21207.4 42642.3 32173
21063.4 44897.5 30621.5
25470 32272.4 36635.2
26013.5 32027.5 39036.5
19736.5 43647 26323.7
19083.4 41927.5 27155.5
26224.3 35314.8 41730.9
27251.5 33264.5 42500.5
18892.9 39765.3 24350.6
19083.4 38957.5 27155.5
26031 22062.7 16218.7
27745.5 20147.4 16513.4
46146.8 39504 32231.6
46308.5 40937.5 33838.5
28443.5 34114.7 44731.6
28488.5 32274.5 43738.5
46215.4 40727.8 33792.5
46061.5 41679.5 35570.5
27939.7 35767.2 45016.3
27993.5 37224.5 46955.5
19445.9 37227.2 25964.8
19330.4 36977.5 27155.5
28532.2 24173.4 31251.4
29973.5 22127.4 29878.5
42387.5 47049.9 35584.1
42843.5 46382.5 38045.5
40856.6 47290.4 19465.8
40368.5 48114.5 21463.4
45896.7 34295.9 30774.1
46061.5 32027.5 30126.5
32225 51815.7 13671.7
31953.5 51332.5 15276.5
32801.5 50274.4 37134.5
34923.5 49847.5 37551.5
26344.7 47726.4 18124.5
24776.4 46629.5 18988.4
21248.5 32335.8 15065.4
21558.4 29552.5 16760.4
26798.6 47710.2 22950.3
24528.4 46877.5 23443.4
37852 48821 37656.4
39873.5 47867.5 38540.5
36203.5 49533 25339
34428.5 49352.5 25918.5
28530.3 49547.6 36329.2
26013.5 49352.5 36560.5
35245 49435.5 25651.9
34923.5 49599.5 27403.5
45913 32293.5 30301.4
45318.5 29552.5 30126.5
44554.9 43065.1 20687.3
45070.5 41184.5 21711.4
19904.9 33212.2 21539.9
20568.4 31037.5 23443.4
27827.4 47916.9 21264.2
26261.5 47372.5 20968.4
43551.4 43924.2 40963.9
42843.5 45639.5 40025.5
22422.2 45325.7 22221.2
22300.4 46134.5 23691.4
22484.9 30067.6 28003.2
21311.4 30294.5 26166.5
21677.4 44181.7 19995.9
21063.4 43907.5 21711.4
22873.6 39032.8 36146.2
23291.4 38957.5 38293.5
38971 48903.1 27595.2
38388.5 49352.5 29383.5
25652 46760.5 38855.8
24776.4 44649.5 39530.5
45574 40772.9 27081.6
46061.5 40937.5 28393.5
43573.8 26504.8 29996.9
42348.5 24354.4 29630.5
46093.6 37769.7 20884.9
46555.5 38462.5 22700.4
43512.6 30335.1 35388.9
42348.5 28562.5 36560.5
41645 47825.1 29179.5
42348.5 47619.5 30373.5
27688.6 48243.5 39332
28241.5 48114.5 41758.5
19047.4 38180.6 20411.8
19083.4 36977.5 21463.4
42329.3 30083.6 38425.7
40863.5 28809.5 39778.5
46175.8 36899.7 29649.9
46555.5 35492.5 28888.5
22775.6 29139.7 27122.3
23785.4 27077.5 27403.5
19322.8 38066 24495.3
19083.4 35987.5 24433.4
27939.7 35767.2 45016.3
28983.5 34749.5 46708.5
37352.1 49049.4 33379.9
39130.5 48857.5 35570.5
39025 48558 18407.2
40615.5 48857.5 17008.4
45583.8 35549.4 36365.9
45318.5 33512.5 35570.5
33756.4 49832.7 19931.9
33438.5 49352.5 21711.4
21560.6 33758.4 30833
20815.4 33017.5 28888.5
43906.7 44651.2 23094.2
44823.5 43659.5 22453.4
21736 29683.5 16484.8
22300.4 27819.5 17256.4
35653.7 49504.1 28679.4
34923.5 49599.5 29383.5
43733.3 24706.1 26895.9
42595.5 22622.4 26908.5
43805.5 46014.3 33154.8
44328.5 45392.5 34333.5
29750.8 25246.5 34597.5
31211.5 23859.4 34828.5
21064.6 32859.5 15370.9
21558.4 33017.5 13543.5
24080.6 25362.4 15158.9
24528.4 23859.4 13791.5
41169.7 47556.3 34728.6
41110.5 47619.5 36066.5
34236.5 53955.1 9902.11
35666.5 53312.5 10573.5
24071.6 45668.7 34759.2
23043.4 43907.5 36560.5
45590 38949.3 19354.1
45813.5 39699.5 20721.4
24106.6 41169.8 38342.6
24033.4 39947.5 39530.5
37286.8 49003.6 33610.3
35913.5 49352.5 34828.5
27944.8 51007.5 12251.7
26756.5 50094.5 13048.5
23564 45020.7 34571.8
21806.4 45144.5 33096.5
39168.6 48726.9 26372.7
37398.5 49352.5 26908.5
24532.4 32741.9 36031.8
[...]
CELL_DATA 1731
SCALARS radius float
LOOKUP_TABLE default
2.122e-314
100
100
100
80.3411
80.3411
72.0123
72.0123
62.2346
62.2346
51.8578
51.8578
74.6879
74.6879
55.7829
55.7829
50
50
48.2088
48.2088
46.4818
46.4818
46.4818
46.4818
55.7829
55.7829
69.4326
69.4326
44.8166
44.8166
50
50
43.2111
43.2111
40.1706
40.1706
86.4222
86.4222
51.8578
51.8578
53.7845
53.7845
80.3411
80.3411
53.7845
53.7845
51.8578
51.8578
48.2088
48.2088
44.8166
44.8166
40.1706
40.1706
48.2088
48.2088
44.8166
44.8166
44.8166
44.8166
41.6631
41.6631
38.7315
38.7315
37.344
37.344
38.7315
38.7315
40.1706
40.1706
38.7315
38.7315
33.4726
33.4726
40.1706
40.1706
28.9278
28.9278
26.8923
26.8923
46.4818
46.4818
32.2735
32.2735
25.9289
25.9289
37.344
37.344
22.4083
22.4083
38.7315
38.7315
37.344
37.344
20.0853
20.0853
17.3581
17.3581
44.8166
44.8166
30.0026
30.0026
25
25
18.0031
18.0031
34.7163
34.7163
33.4726
33.4726
23.2409
23.2409
19.3657
19.3657
15.5587
15.5587
14.4639
14.4639
43.2111
43.2111
31.1173
31.1173
27.8914
27.8914
13.9457
13.9457
12.0522
12.0522
13.4461
13.4461
37.344
37.344
30.0026
30.0026
21.6055
21.6055
17.3581
17.3581
11.6204
11.6204
41.6631
41.6631
28.9278
28.9278
18.0031
18.0031
15.5587
15.5587
10.0426
10.0426
9.00154
9.00154
38.7315
38.7315
18.672
18.672
13.9457
13.9457
16.7363
16.7363
13.4461
13.4461
7.77933
7.77933
38.7315
38.7315
27.8914
27.8914
24.1044
24.1044
16.7363
16.7363
22.4083
22.4083
28.9278
28.9278
26.8923
26.8923
16.7363
16.7363
9.33599
9.33599
33.4726
33.4726
17.3581
17.3581
12.5
12.5
15.5587
15.5587
36.0062
36.0062
28.9278
28.9278
13.4461
13.4461
31.1173
31.1173
13.4461
13.4461
14.4639
14.4639
12.0522
12.0522
33.4726
33.4726
18.672
18.672
18.672
18.672
36.0062
36.0062
20.8316
20.8316
9.33599
9.33599
36.0062
36.0062
16.1367
16.1367
28.9278
28.9278
9.00154
9.00154
11.2042
11.2042
30.0026
30.0026
14.4639
14.4639
43.2111
43.2111
25.9289
25.9289
9.33599
9.33599
28.9278
28.9278
15.5587
15.5587
14.4639
14.4639
25.9289
25.9289
12.0522
12.0522
37.344
37.344
17.3581
17.3581
15.0013
15.0013
40.1706
40.1706
11.2042
11.2042
32.2735
32.2735
8.67907
8.67907
28.9278
28.9278
15.0013
15.0013
24.1044
24.1044
9.68287
9.68287
37.344
37.344
18.0031
18.0031
36.0062
36.0062
13.9457
13.9457
33.4726
33.4726
11.6204
11.6204
16.7363
16.7363
12.9644
12.9644
28.9278
28.9278
11.6204
11.6204
26.8923
26.8923
18.0031
18.0031
20.8316
20.8316
10.8028
10.8028
20.0853
20.0853
11.6204
11.6204
25.9289
25.9289
8.36815
8.36815
23.2409
23.2409
43.2111
43.2111
18.0031
18.0031
62.2346
62.2346
25
25
41.6631
41.6631
25
25
40.1706
40.1706
25.9289
25.9289
38.7315
38.7315
22.4083
22.4083
37.344
37.344
17.3581
17.3581
36.0062
36.0062
25
25
43.2111
43.2111
15.5587
15.5587
34.7163
34.7163
10.4158
10.4158
34.7163
34.7163
16.1367
16.1367
40.1706
40.1706
19.3657
19.3657
26.8923
26.8923
15.0013
15.0013
26.8923
26.8923
14.4639
14.4639
37.344
37.344
20.0853
20.0853
31.1173
31.1173
12.9644
12.9644
20.8316
20.8316
10.0426
10.0426
26.8923
26.8923
11.2042
11.2042
31.1173
31.1173
48.2088
48.2088
17.3581
17.3581
51.8578
51.8578
12.0522
12.0522
34.7163
34.7163
24.1044
24.1044
37.344
37.344
13.4461
13.4461
23.2409
23.2409
8.36815
8.36815
25.9289
25.9289
20.8316
20.8316
25
25
77.463
77.463
21.6055
21.6055
30.0026
30.0026
16.7363
16.7363
30.0026
30.0026
72.0123
72.0123
20.8316
20.8316
41.6631
41.6631
12.9644
12.9644
32.2735
32.2735
15.0013
15.0013
16.7363
16.7363
40.1706
40.1706
12.5
12.5
19.3657
19.3657
40.1706
40.1706
7.23194
7.23194
32.2735
32.2735
38.7315
38.7315
8.36815
8.36815
18.672
18.672
40.1706
40.1706
15.0013
15.0013
30.0026
30.0026
22.4083
22.4083
24.1044
24.1044
50
50
17.3581
17.3581
32.2735
32.2735
12.0522
12.0522
15.0013
15.0013
27.8914
27.8914
8.06837
8.06837
19.3657
19.3657
36.0062
36.0062
10.8028
10.8028
18.0031
18.0031
34.7163
34.7163
21.6055
21.6055
24.1044
24.1044
38.7315
38.7315
8.36815
8.36815
23.2409
23.2409
25
25
74.6879
74.6879
16.7363
16.7363
25.9289
25.9289
13.4461
13.4461
24.1044
24.1044
25
25
48.2088
48.2088
16.7363
16.7363
31.1173
31.1173
60.0051
60.0051
25
25
14.4639
14.4639
44.8166
44.8166
11.6204
11.6204
27.8914
27.8914
38.7315
38.7315
11.6204
11.6204
28.9278
28.9278
53.7845
53.7845
12.9644
12.9644
24.1044
24.1044
40.1706
40.1706
24.1044
24.1044
22.4083
22.4083
12.0522
12.0522
27.8914
27.8914
41.6631
41.6631
11.2042
11.2042
25
25
31.1173
31.1173
64.547
64.547
16.1367
16.1367
20.0853
20.0853
36.0062
36.0062
13.4461
13.4461
16.1367
16.1367
40.1706
40.1706
9.00154
9.00154
10.0426
10.0426
25.9289
25.9289
66.9452
66.9452
16.1367
16.1367
15.5587
15.5587
33.4726
33.4726
10.8028
10.8028
8.67907
8.67907
19.3657
19.3657
30.0026
30.0026
11.2042
11.2042
18.672
18.672
21.6055
21.6055
33.4726
33.4726
13.4461
13.4461
12.9644
12.9644
26.8923
26.8923
32.2735
32.2735
16.1367
16.1367
21.6055
21.6055
26.8923
26.8923
33.4726
33.4726
83.3262
83.3262
16.7363
16.7363
16.7363
16.7363
38.7315
38.7315
50
50
18.0031
18.0031
16.1367
16.1367
22.4083
22.4083
41.6631
41.6631
12.5
12.5
25.9289
25.9289
16.1367
16.1367
30.0026
30.0026
46.4818
46.4818
12.5
12.5
15.0013
15.0013
18.0031
18.0031
23.2409
23.2409
89.6332
89.6332
8.36815
8.36815
23.2409
23.2409
18.0031
18.0031
24.1044
24.1044
51.8578
51.8578
12.0522
12.0522
23.2409
23.2409
24.1044
24.1044
23.2409
23.2409
55.7829
55.7829
14.4639
14.4639
24.1044
24.1044
12.5
12.5
11.6204
11.6204
16.7363
16.7363
16.1367
16.1367
13.9457
13.9457
16.1367
16.1367
15.5587
15.5587
20.0853
20.0853
11.2042
11.2042
8.06837
8.06837
15.5587
15.5587
13.9457
13.9457
13.4461
13.4461
15.5587
15.5587
11.6204
11.6204
14.4639
14.4639
15.5587
15.5587
13.4461
13.4461
12.9644
12.9644
12.9644
12.9644
14.4639
14.4639
11.2042
11.2042
13.9457
13.9457
12.5
12.5
13.9457
13.9457
16.1367
16.1367
15.0013
15.0013
15.0013
15.0013
8.67907
8.67907
13.9457
13.9457
15.5587
15.5587
13.9457
13.9457
19.3657
19.3657
12.5
12.5
19.3657
19.3657
12.0522
12.0522
12.5
12.5
9.00154
9.00154
12.5
12.5
12.0522
12.0522
11.2042
11.2042
11.6204
11.6204
9.68287
9.68287
10.4158
10.4158
7.50064
7.50064
10.4158
10.4158
10.8028
10.8028
7.77933
7.77933
7.50064
7.50064
8.67907
8.67907
10.4158
10.4158
11.2042
11.2042
8.06837
8.06837
10.0426
10.0426
13.9457
13.9457
48.2088
48.2088
66.9452
66.9452
31.1173
31.1173
69.4326
69.4326
15.0013
15.0013
57.8555
57.8555
53.7845
53.7845
66.9452
66.9452
83.3262
83.3262
64.547
64.547
69.4326
69.4326
77.463
77.463
46.4818
46.4818
44.8166
44.8166
64.547
64.547
48.2088
48.2088
53.7845
53.7845
46.4818
46.4818
41.6631
41.6631
43.2111
43.2111
41.6631
41.6631
40.1706
40.1706
44.8166
44.8166
36.0062
36.0062
37.344
37.344
41.6631
41.6631
43.2111
43.2111
34.7163
34.7163
36.0062
36.0062
41.6631
41.6631
34.7163
34.7163
37.344
37.344
36.0062
36.0062
31.1173
31.1173
38.7315
38.7315
33.4726
33.4726
34.7163
34.7163
28.9278
28.9278
27.8914
27.8914
38.7315
38.7315
31.1173
31.1173
25
25
25.9289
25.9289
25.9289
25.9289
30.0026
30.0026
16.1367
16.1367
34.7163
34.7163
30.0026
30.0026
26.8923
26.8923
27.8914
27.8914
16.1367
16.1367
26.8923
26.8923
20.0853
20.0853
22.4083
22.4083
18.672
18.672
21.6055
21.6055
18.672
18.672
12.9644
12.9644
15.0013
15.0013
8.67907
8.67907
64.547
64.547
74.6879
74.6879
44.8166
44.8166
38.7315
38.7315
27.8914
27.8914
25
25
10.8028
10.8028
10.4158
10.4158
8.67907
8.67907
41.6631
41.6631
43.2111
43.2111
31.1173
31.1173
25
25
21.6055
21.6055
12.9644
12.9644
60.0051
60.0051
27.8914
27.8914
24.1044
24.1044
10.8028
10.8028
10.8028
10.8028
13.4461
13.4461
41.6631
41.6631
37.344
37.344
20.8316
20.8316
20.0853
20.0853
37.344
37.344
32.2735
32.2735
27.8914
27.8914
16.1367
16.1367
9.00154
9.00154
36.0062
36.0062
34.7163
34.7163
25.9289
25.9289
17.3581
17.3581
27.8914
27.8914
17.3581
17.3581
51.8578
51.8578
27.8914
27.8914
26.8923
26.8923
50
50
30.0026
30.0026
57.8555
57.8555
28.9278
28.9278
77.463
77.463
16.1367
16.1367
60.0051
60.0051
18.0031
18.0031
72.0123
72.0123
9.68287
9.68287
38.7315
38.7315
16.1367
16.1367
46.4818
46.4818
11.6204
11.6204
43.2111
43.2111
51.8578
51.8578
16.7363
16.7363
36.0062
36.0062
37.344
37.344
57.8555
57.8555
72.0123
72.0123
60.0051
60.0051
92.9635
92.9635
96.4176
96.4176
50
50
40.1706
40.1706
36.0062
36.0062
15.0013
15.0013
28.9278
28.9278
30.0026
30.0026
27.8914
27.8914
50
50
44.8166
44.8166
43.2111
43.2111
46.4818
46.4818
41.6631
41.6631
48.2088
48.2088
43.2111
43.2111
46.4818
46.4818
40.1706
40.1706
34.7163
34.7163
41.6631
41.6631
40.1706
40.1706
33.4726
33.4726
34.7163
34.7163
32.2735
32.2735
36.0062
36.0062
34.7163
34.7163
38.7315
38.7315
37.344
37.344
34.7163
34.7163
32.2735
32.2735
37.344
37.344
31.1173
31.1173
36.0062
36.0062
36.0062
36.0062
27.8914
27.8914
34.7163
34.7163
34.7163
34.7163
37.344
37.344
25.9289
25.9289
34.7163
34.7163
32.2735
32.2735
30.0026
30.0026
24.1044
24.1044
26.8923
26.8923
25.9289
25.9289
25
25
25
25
26.8923
26.8923
27.8914
27.8914
25.9289
25.9289
22.4083
22.4083
25
25
24.1044
24.1044
23.2409
23.2409
15.0013
15.0013
21.6055
21.6055
11.6204
11.6204
24.1044
24.1044
24.1044
24.1044
17.3581
17.3581
25
25
20.8316
20.8316
12.0522
12.0522
17.3581
17.3581
22.4083
22.4083
20.0853
20.0853
23.2409
23.2409
10.8028
10.8028
24.1044
24.1044
23.2409
23.2409
14.4639
14.4639
23.2409
23.2409
15.5587
15.5587
19.3657
19.3657
13.4461
13.4461
16.1367
16.1367
15.0013
15.0013
16.1367
16.1367
13.4461
13.4461
12.0522
12.0522
13.9457
13.9457
14.4639
14.4639
15.5587
15.5587
23.2409
23.2409
13.9457
13.9457
11.2042
11.2042
11.2042
11.2042
10.8028
10.8028
11.6204
11.6204
18.672
18.672
23.2409
23.2409
22.4083
22.4083
12.5
12.5
11.6204
11.6204
13.4461
13.4461
20.0853
20.0853
21.6055
21.6055
13.9457
13.9457
12.9644
12.9644
9.00154
9.00154
12.9644
12.9644
12.5
12.5
14.4639
14.4639
13.4461
13.4461
10.0426
10.0426
13.4461
13.4461
13.9457
13.9457
14.4639
14.4639
14.4639
14.4639
12.0522
12.0522
17.3581
17.3581
12.9644
12.9644
12.9644
12.9644
12.5
12.5
8.06837
8.06837
6.97286
6.97286
8.06837
8.06837
7.23194
7.23194
6.97286
6.97286
10.8028
10.8028
11.2042
11.2042
11.6204
11.6204
12.9644
12.9644
10.4158
10.4158
8.36815
8.36815
8.06837
8.06837
8.06837
8.06837
11.6204
11.6204
10.4158
10.4158
11.2042
11.2042
8.06837
8.06837
8.67907
8.67907
10.8028
10.8028
10.0426
10.0426
16.7363
16.7363
10.4158
10.4158
10.8028
10.8028
10.4158
10.4158
10.0426
10.0426
7.00259e-312
7.00259e-312
7.00259e-312
7.00259e-312
7.00259e-312
7.00259e-312
7.00259e-312
7.00259e-312
7.00259e-312
7.00259e-312
7.00259e-312
7.00259e-312
7.00259e-312
7.00259e-312
7.00259e-312
7.00259e-312
7.00259e-312
7.00259e-312
7.00259e-312
7.00259e-312
7.00259e-312
7.00259e-312
7.00259e-312
7.00259e-312
7.00259e-312
7.00259e-312
7.00259e-312
7.00259e-312
7.00259e-312
7.00259e-312
7.00259e-312
7.00259e-312
7.00259e-312
7.00259e-312
7.00259e-312
7.00259e-312
7.00259e-312
7.00259e-312
7.00259e-312
7.00259e-312
7.00259e-312
7.00259e-312
7.00259e-312
7.00259e-312
7.00259e-312
7.00259e-312
7.00259e-312
7.00259e-312
7.00259e-312
7.00259e-312
7.00259e-312
7.00259e-312
7.00259e-312
7.00259e-312
7.00259e-312
7.00259e-312
7.00259e-312
7.00259e-312
7.00259e-312
7.00259e-312
7.00259e-312
7.00259e-312
7.00259e-312
7.00259e-312
7.00259e-312
7.00259e-312
7.00259e-312
7.00259e-312
7.00259e-312
7.00259e-312
7.00259e-312
7.00259e-312
7.00259e-312
7.00259e-312
7.00259e-312
7.00259e-312
7.00259e-312
7.00259e-312
7.00259e-312
7.00259e-312
7.00259e-312
7.00259e-312
7.00259e-312
7.00259e-312
7.00259e-312
7.00259e-312
7.00259e-312
7.00259e-312
7.00259e-312
7.00259e-312
7.00259e-312
7.00259e-312
7.00259e-312
7.00259e-312
7.00259e-312
7.00259e-312
7.00259e-312
7.00259e-312
7.00259e-312
7.00259e-312
7.00259e-312
7.00259e-312
7.00259e-312
7.00259e-312
7.00259e-312
7.00259e-312
7.00259e-312
7.00259e-312
7.00259e-312
7.00259e-312
7.00259e-312
7.00259e-312
7.00259e-312
7.00259e-312
7.00259e-312
7.00259e-312
7.00259e-312
7.00259e-312
7.00259e-312
7.00259e-312
7.00259e-312
7.00259e-312
7.00259e-312
7.00259e-312
7.00259e-312
7.00259e-312
7.00259e-312
7.00259e-312
7.00259e-312
7.00259e-312
7.00259e-312
7.00259e-312
7.00259e-312
7.00259e-312
7.00259e-312
7.00259e-312
7.00259e-312
7.00259e-312
7.00259e-312
7.00259e-312
7.00259e-312
7.00259e-312
7.00259e-312
7.00259e-312
7.00259e-312
7.00259e-312
7.00259e-312
7.00259e-312
7.00259e-312
7.00259e-312
7.00259e-312
7.00259e-312
7.00259e-312
7.00259e-312
7.00259e-312
7.00259e-312
7.00259e-312
7.00259e-312
7.00259e-312
7.00259e-312
7.00259e-312
7.00259e-312
7.00259e-312
7.00259e-312
7.00259e-312
7.00259e-312
7.00259e-312
7.00259e-312
7.00259e-312
7.00259e-312
7.00259e-312
7.00259e-312
7.00259e-312
7.00259e-312
7.00259e-312
7.00259e-312
7.00259e-312
7.00259e-312
7.00259e-312
7.00259e-312
7.00259e-312
7.00259e-312
7.00259e-312
7.00259e-312
7.00259e-312
7.00259e-312
7.00259e-312
7.00259e-312
7.00259e-312
7.00259e-312
7.00259e-312
7.00259e-312
7.00259e-312
7.00259e-312
7.00259e-312
7.00259e-312
7.00259e-312
7.00259e-312
7.00259e-312
7.00259e-312
7.00259e-312
7.00259e-312
7.00259e-312
7.00259e-312
7.00259e-312
7.00259e-312
7.00259e-312
7.00259e-312
7.00259e-312
7.00259e-312
7.00259e-312
7.00259e-312
7.00259e-312
7.00259e-312
7.00259e-312
7.00259e-312
7.00259e-312
7.00259e-312
7.00259e-312
7.00259e-312
7.00259e-312
7.00259e-312
7.00259e-312
7.00259e-312
7.00259e-312
7.00259e-312
7.00259e-312
7.00259e-312
7.00259e-312
7.00259e-312
7.00259e-312
7.00259e-312
7.00259e-312
7.00259e-312
7.00259e-312
7.00259e-312
7.00259e-312
7.00259e-312
7.00259e-312
7.00259e-312
7.00259e-312
7.00259e-312
7.00259e-312
7.00259e-312
7.00259e-312
7.00259e-312
7.00259e-312
7.00259e-312
7.00259e-312
7.00259e-312
7.00259e-312
7.00259e-312
7.00259e-312
7.00259e-312
7.00259e-312
7.00259e-312
7.00259e-312
7.00259e-312
7.00259e-312
7.00259e-312
7.00259e-312
7.00259e-312
7.00259e-312
7.00259e-312
7.00259e-312
7.00259e-312
7.00259e-312
7.00259e-312
7.00259e-312
7.00259e-312
7.00259e-312
7.00259e-312
7.00259e-312
7.00259e-312
7.00259e-312
7.00259e-312
7.00259e-312
7.00259e-312
7.00259e-312
7.00259e-312
7.00259e-312
7.00259e-312
7.00259e-312
7.00259e-312
7.00259e-312
7.00259e-312
7.00259e-312
7.00259e-312
7.00259e-312
7.00259e-312
7.00259e-312
7.00259e-312
7.00259e-312
7.00259e-312
7.00259e-312
7.00259e-312
7.00259e-312
7.00259e-312
7.00259e-312
7.00259e-312
7.00259e-312
7.00259e-312
7.00259e-312
7.00259e-312
7.00259e-312
7.00259e-312
7.00259e-312
7.00259e-312
7.00259e-312
7.00259e-312
7.00259e-312
7.00259e-312
7.00259e-312
7.00259e-312
7.00259e-312
7.00259e-312
7.00259e-312
7.00259e-312
7.00259e-312
7.00259e-312
7.00259e-312
7.00259e-312
7.00259e-312
7.00259e-312
7.00259e-312
7.00259e-312
7.00259e-312
7.00259e-312
7.00259e-312
7.00259e-312
7.00259e-312
7.00259e-312
7.00259e-312
7.00259e-312
7.00259e-312
7.00259e-312
7.00259e-312
7.00259e-312
7.00259e-312
7.00259e-312
7.00259e-312
7.00259e-312
7.00259e-312
7.00259e-312
7.00259e-312
7.00259e-312
7.00259e-312
7.00259e-312
7.00259e-312
7.00259e-312
7.00259e-312
7.00259e-312
7.00259e-312
7.00259e-312
7.00259e-312
7.00259e-312
7.00259e-312
7.00259e-312
7.00259e-312
7.00259e-312
7.00259e-312
7.00259e-312
7.00259e-312
7.00259e-312
7.00259e-312
7.00259e-312
7.00259e-312
7.00259e-312
7.00259e-312
7.00259e-312
7.00259e-312
7.00259e-312
7.00259e-312
7.00259e-312
7.00259e-312
7.00259e-312
7.00259e-312
7.00259e-312
7.00259e-312
7.00259e-312
7.00259e-312
7.00259e-312
7.00259e-312
7.00259e-312
7.00259e-312
7.00259e-312
7.00259e-312
7.00259e-312
7.00259e-312
7.00259e-312
7.00259e-312
7.00259e-312
7.00259e-312
7.00259e-312
7.00259e-312
7.00259e-312
7.00259e-312
7.00259e-312
7.00259e-312
7.00259e-312
7.00259e-312
7.00259e-312
7.00259e-312
7.00259e-312
7.00259e-312
7.00259e-312
7.00259e-312
7.00259e-312
7.00259e-312
7.00259e-312
7.00259e-312
7.00259e-312
7.00259e-312
7.00259e-312
7.00259e-312
7.00259e-312
7.00259e-312
7.00259e-312
7.00259e-312
7.00259e-312
7.00259e-312
7.00259e-312
7.00259e-312
7.00259e-312
7.00259e-312
7.00259e-312
7.00259e-312
7.00259e-312
7.00259e-312
