# vtk DataFile Version 3.0
Tree
ASCII
DATASET POLYDATA
POINTS 1732 float
40693.5 56318.5 68.45
40693.5 56318.5 2568.45
34443.5 55443.5 6443.45
33438.5 52817.5 12801.5
33740 53605.3 10894.1
37151.5 52322.5 13543.5
33685 53001.8 12489
34181.5 52569.5 14038.5
34012.7 52716.5 13511.7
29726.5 49847.5 17256.4
30979 50825.4 15664.3
25270.5 48857.5 14038.5
36301.8 52269.6 13380.4
38636.5 49104.5 18245.4
32131.8 51544 14846.3
33191.5 49847.5 19730.4
38265.6 49746.7 16841.6
42843.5 45392.5 17998.4
29729.9 49916.9 16843.4
26261.5 47619.5 18741.4
33542 52894.9 12670.3
29230.5 51827.5 11563.5
32481.8 50234.8 18389.7
30468.5 48857.5 20968.4
26362.4 48839.6 14764.9
23538.4 46382.5 15523.5
38595.7 49216.4 18183.2
39378.5 48114.5 21711.4
41832 45983.1 17287.6
43585.5 42917.5 16018.5
38954.2 48603.3 20527.5
37398.5 49352.5 23196.4
28099.4 48734 18195.7
27745.5 47867.5 21215.4
33094.6 50004.4 19222.1
35913.5 49847.5 20226.4
39251.2 48261.2 21356.2
42348.5 46629.5 21711.4
37616.7 49139 22453.1
34181.5 49352.5 23443.4
42624.5 45526.2 17969.1
43833.5 44897.5 20473.4
43008.2 43433.3 16118.7
42843.5 40689.5 14286.5
23998.5 46697.2 15745.8
22300.4 44897.5 17503.4
37498.9 49254.3 22854.5
39625.5 48857.5 25175.5
37428.6 49323 23093.8
36160.5 49599.5 25423.5
43090.8 40932.2 14379.6
43585.5 39204.5 13048.5
30908.2 49229.4 20826.5
29726.5 48857.5 24928.4
22809.8 45437.4 16976.1
23538.4 45392.5 20968.4
43558.2 44938.1 19777
44823.5 42917.5 20721.4
41951.5 46743.9 21972.5
43585.5 45639.5 22948.4
27553.5 48006 20975.9
26756.5 47619.5 22948.4
43412.3 43072.2 16048.6
44823.5 40937.5 17750.4
22453.2 45059.5 17345.2
21063.4 43659.5 16513.4
23502.1 45680.5 20495.2
24033.4 46382.5 22700.4
43169.1 41465.7 15044.3
43833.5 39204.5 15276.5
30339.7 49004.2 24142.4
31211.5 49104.5 26166.5
36470 49503.4 25227.4
35418.5 49352.5 32106.5
38967.5 48970.6 24687.3
38883.5 48857.5 27651.5
35532.3 49527.3 31980.1
34923.5 49847.5 37551.5
35295.8 49657 36913.4
36408.5 49104.5 43738.5
39531.6 48773.7 25060
42843.5 46877.5 26908.5
30950 49074.4 25559.3
27993.5 50342.5 31611.5
35035.2 49790.4 37360.1
29230.5 50094.5 39530.5
28482.6 49795.7 29962.4
22943.5 47693.4 32693.5
43275.8 45677.1 22878.2
45813.5 41679.5 25918.5
24529.1 48027.5 32185.8
23043.4 43907.5 36560.5
23756.3 44534.8 36072.3
25270.5 40442.5 41510.5
25456.2 40498.4 40903.5
27993.5 35739.5 45223.5
22358.5 44959.1 17443.3
19826.4 41927.5 20226.4
20371.5 42260.9 20237.1
18836.4 38462.5 25670.5
23257.3 44095.7 36414
22053.4 38462.5 35818.5
24266.3 43323.9 37521.7
26756.5 45887.5 42748.5
43748.1 39693 15366.2
45318.5 36977.5 17503.4
39115.3 48820.4 27187.9
41853.5 47867.5 33096.5
41508 47303.1 31948.5
44576.5 43659.5 37055.5
22274.6 39359.8 35355.6
21311.4 34007.5 31363.5
21557 34592.6 31290.1
21311.4 30294.5 26166.5
21903.4 30679 26898.2
23785.4 26087.5 22453.4
26758.2 47789.5 22812.4
24776.4 47867.5 26908.5
23419.2 47793.6 32541.2
20073.4 42174.5 31115.5
21489 30409.8 26386
19578.4 33759.5 20721.4
20151.6 32754.6 22420.8
21558.4 30294.5 16265.5
21434.1 30329.6 18035.2
23785.4 25097.5 15276.5
21385.1 34183 31341.5
25023.5 29057.5 33591.5
24456.9 29783 32706.8
27993.5 24354.4 31611.5
23705 25817.1 16194.5
27745.5 20147.4 16513.4
21355.6 43815.9 16785.1
19578.4 40194.5 17008.4
45107.6 42818.8 25415.8
46061.5 41679.5 31115.5
45699 42112.4 28949.6
46308.5 35739.5 30868.5
44053.8 43549.1 36169.2
45813.5 38709.5 39036.5
45816.9 36528.1 30978
44823.5 30542.5 34085.5
45025.1 32539.8 33474.1
43091.5 31284.5 39778.5
44053.8 43549.1 36169.2
43833.5 40937.5 44480.5
43482.7 40668.4 42444.7
41853.5 35987.5 46461.5
24853.5 29275.1 33326.1
27498.5 30542.5 39283.5
28093.7 25436.1 31778.6
33438.5 21879.4 30868.5
26857.2 26914 32094.2
31458.5 25344.5 37055.5
45601.7 42021.3 25767.7
46555.5 38462.5 22700.4
19776.4 33577.1 20859.2
20073.4 35244.5 15771.5
44932.4 31621 33755.3
44823.5 26829.5 28888.5
44539.4 27115.8 29297.9
43338.5 22374.4 24928.4
43332.9 22907.9 24899.2
41853.5 19157.4 19483.4
31453 23073.6 30871.5
32943.5 20394.4 26166.5
23527.5 45478.9 20826.4
20815.4 44649.5 23691.4
45033.1 37052.3 17099.7
46308.5 32274.5 18741.4
35366.7 49618.1 35433.4
39873.5 47867.5 38540.5
43499.4 42879.4 39208.9
41358.5 45144.5 43985.5
22119.8 38731.7 35679.6
24528.4 34749.5 38788.5
25309.2 47752.4 25361.5
22053.4 46629.5 26166.5
28115.5 50186.7 31418.6
27745.5 50342.5 35570.5
42918.6 38506.6 43537
42595.5 34254.5 42500.5
25753.1 28233.7 32376
25270.5 25592.5 27898.5
35386.3 49529.7 27874
32448.5 49599.5 29630.5
21553.9 30206.5 16343.3
21806.4 29799.5 12801.5
44673 28647.6 30813.4
41110.5 24354.4 31611.5
27520.3 29841 38447
30221.5 29304.5 42253.5
19998.7 40795.2 17410.2
19083.4 37967.5 19235.4
45241.6 40074.5 37896.7
45813.5 35739.5 36066.5
42336.4 35056.1 42919.1
40121.5 31779.5 43491.5
44515.3 37839.4 16252.6
45070.5 33017.5 15028.5
44998.9 34270.4 15030.9
46308.5 31284.5 10078.5
27583 49947.7 34664.6
25765.5 47867.5 38293.5
25981.8 44829.1 41188.4
27251.5 42669.5 44728.5
19870 35153.8 17631.7
19578.4 37472.5 16513.4
24122.1 35921 38515.5
25518.5 35492.5 41263.5
21101.2 44436.3 23451.6
19578.4 43412.5 25175.5
44286.7 31903.6 35486.9
42348.5 28562.5 36560.5
27869.8 35842.3 44394.7
29726.5 32027.5 45966.5
22702 46752.8 26396.7
20568.4 45639.5 28393.5
22984.6 37051.8 36795.5
23291.4 33759.5 36560.5
42060.4 44224.1 43302.6
41693.4 43943.4 47443.4
19285.4 39141.6 24030.3
19083.4 35987.5 24433.4
24027 26496.4 23312.4
26261.5 23612.4 21711.4
46208.5 39370 22963
46061.5 38462.5 20226.4
42489.7 46256.4 34149.3
43091.5 46877.5 37303.5
43324 31312.5 38383.7
40863.5 28809.5 39778.5
21570.8 44477.6 22567.4
19083.4 42422.5 22948.4
22540.5 29424.2 25822.5
21558.4 29304.5 22453.4
44359.2 41050 17551.4
44576.5 39204.5 18741.4
21660.9 33418.5 29972.5
20073.4 34254.5 26908.5
25328.2 35313.4 40584.8
27251.5 33264.5 42500.5
25897.7 48729.3 30995.6
23291.4 48114.5 29878.5
26524.1 45570 42280.5
28241.5 48114.5 41758.5
42506.8 46803.7 26892
44328.5 45392.5 28145.5
45547.7 35172.1 31826.7
46061.5 32027.5 30126.5
26448.7 39039.4 42701
27251.5 39204.5 45223.5
19923.7 43402.7 25082.8
19083.4 41927.5 27155.5
42234.3 37212.4 45528.9
41606.5 37719.5 47946.5
45711.6 41761.4 25942.5
46308.5 39699.5 27651.5
23831.8 25164 15468.8
24776.4 23117.4 14286.5
46456.6 38565.2 22775.2
46555.5 36234.5 22700.4
23003.2 32265.3 32782.7
24033.4 31532.5 34581.5
19995.1 41941.2 20213.4
19083.4 40194.5 19978.4
43162.5 29965.8 36109.6
42843.5 27324.5 33591.5
44552.7 43068.8 20688.5
45070.5 41184.5 21711.4
35994.5 49326.6 39226.6
38140.5 48362.5 40273.5
44254.4 43629.6 20415
44823.5 43659.5 22453.4
21727.1 44253.6 32786.7
21063.4 42174.5 33838.5
29978.8 24190.1 31678.6
32200.5 23117.4 33591.5
29525.5 49613.9 28897.6
30468.5 50094.5 32106.5
21385.1 34183 31341.5
23043.4 30047.5 30373.5
41515.5 47409.5 30919.3
43585.5 46382.5 32353.5
25212.2 26619.2 29217.2
23785.4 27077.5 27403.5
19249.5 38853.5 19060.9
18588.4 38214.5 20968.4
41096 33429.2 43793.8
40121.5 32522.5 45470.5
35234.3 49572.8 30958.3
33685.5 49847.5 32600.5
27505.1 30332 39032.6
26013.5 32027.5 39036.5
22425.3 46141.1 32210.5
21063.4 44897.5 30621.5
28373.1 26652.1 34349.3
28488.5 27572.5 36808.5
46082.3 36102.3 30918.9
46555.5 35492.5 28888.5
37205 50779.4 15619
36160.5 50094.5 17750.4
45985.7 41644.9 31011.6
46308.5 40937.5 33838.5
25691.7 24139.9 21703.6
26261.5 22622.4 19730.4
19130.7 38098.7 19255
19083.4 36234.5 20226.4
27251.7 33379 42502.8
28488.5 32274.5 43738.5
41749.9 47698.2 32752.1
40121.5 48362.5 34828.5
28134.8 49905.8 14608.1
26756.5 50094.5 13048.5
20103.1 35055.5 16294.5
21558.4 33017.5 13543.5
33791.6 54502.2 8050.86
32193.5 53193.4 8693.45
19010.2 38430.4 25300.6
19083.4 36729.5 26660.5
25103.9 48322.3 31685.9
24943.5 49193.4 33693.4
40249.2 48287 34267.9
37893.5 49104.5 34828.5
30539 23765.8 31371.9
29973.5 22127.4 29878.5
30380.8 50048.6 32029.4
30963.5 50342.5 34581.5
27933.5 35893.3 44942.8
27993.5 37224.5 46955.5
46174.3 41273.7 33481.4
46061.5 41679.5 35570.5
30360 51977.1 12070.2
28983.5 50837.5 13048.5
21235.2 42680.4 33452.1
20815.4 40937.5 32600.5
35108.5 49291.7 23039.9
33438.5 49352.5 21711.4
46255.3 40958 33737.7
46555.5 38709.5 35076.5
28719 49183.5 17681.8
26756.5 48609.5 16760.4
43017.7 46434.3 36737
43585.5 45639.5 39036.5
21753.5 44151.1 18434.4
21806.4 44402.5 20226.4
44508.2 32094.5 34883
45318.5 33264.5 37055.5
26317.8 47616.1 18643.2
24776.4 46629.5 18988.4
20887.4 40983.8 32748
20568.4 38709.5 32106.5
36201.7 49531.8 25355.2
34428.5 49352.5 25918.5
26862.3 49053.1 36657.2
27498.5 49352.5 38788.5
23874 46171.9 22038.8
22300.4 46134.5 23691.4
45547.2 39279.7 38748.1
45318.5 38957.5 41510.5
38953 48846.4 27512.4
37398.5 49352.5 28145.5
22918.1 41718.8 36306.7
23291.4 38957.5 38293.5
29790 49252.8 27487.8
28241.5 48857.5 28145.5
21949 31339.4 28605.2
22300.4 29552.5 28393.5
21523.4 45966.1 27019.2
20321.4 44897.5 26908.5
26469.7 42949 42899.1
26508.5 41432.5 43491.5
46236.8 39726.1 27458.3
46555.5 38214.5 28393.5
33001.6 20898.8 27503.5
34428.5 19899.4 26908.5
46088.2 39287.1 30678.4
46555.5 38709.5 31858.5
31106.7 23682.5 32942.2
31211.5 23859.4 34828.5
20585.1 34297.4 15473.9
21063.4 32522.5 15771.5
34036 54021.7 9399.16
35666.5 53312.5 10573.5
27301.3 49086.4 38231.7
27498.5 48114.5 39530.5
38486.7 48998.2 27702.3
38388.5 49352.5 29383.5
43558.9 26956.7 30828.7
43585.5 24849.4 29383.5
22220.8 46587.9 26198.5
21063.4 45392.5 25423.5
23783.3 31898.3 34231.8
24528.4 32522.5 36066.5
19107.5 37289.3 19904.2
19083.4 36977.5 21463.4
34123.2 52546.5 13956.7
34428.5 51827.5 15523.5
40159.8 48339.9 34660.3
41110.5 47619.5 36066.5
32482 51877.8 14319.5
30468.5 51332.5 14038.5
45079.5 33231.2 36414.6
45318.5 34749.5 37055.5
33431.3 49573.7 28356.9
32200.5 49599.5 28145.5
22899.5 28272.2 24345.9
22548.4 27819.5 22700.4
45099.7 32227.1 12168.1
44576.5 31532.5 11563.5
43233.6 23842.1 27168.1
42595.5 22622.4 26908.5
43380.1 46327.2 32307
44328.5 45639.5 33096.5
27897.2 26621.5 33507.7
29478.5 24849.4 34085.5
18944.9 38480.3 25580.3
19083.4 38957.5 27155.5
27973.1 35791.8 45128.1
[...]
CELL_DATA 1731
SCALARS radius float
LOOKUP_TABLE default
2.122e-314
100
100
100
72.0123
72.0123
66.9452
66.9452
64.547
64.547
51.8578
51.8578
69.4326
69.4326
55.7829
55.7829
53.7845
53.7845
50
50
62.2346
62.2346
51.8578
51.8578
44.8166
44.8166
51.8578
51.8578
46.4818
46.4818
46.4818
46.4818
44.8166
44.8166
48.2088
48.2088
44.8166
44.8166
44.8166
44.8166
44.8166
44.8166
41.6631
41.6631
37.344
37.344
43.2111
43.2111
41.6631
41.6631
38.7315
38.7315
46.4818
46.4818
34.7163
34.7163
40.1706
40.1706
40.1706
40.1706
40.1706
40.1706
40.1706
40.1706
33.4726
33.4726
31.1173
31.1173
40.1706
40.1706
43.2111
43.2111
37.344
37.344
38.7315
38.7315
28.9278
28.9278
25
25
36.0062
36.0062
41.6631
41.6631
23.2409
23.2409
34.7163
34.7163
37.344
37.344
30.0026
30.0026
27.8914
27.8914
22.4083
22.4083
32.2735
32.2735
28.9278
28.9278
26.8923
26.8923
25.9289
25.9289
36.0062
36.0062
37.344
37.344
31.1173
31.1173
24.1044
24.1044
21.6055
21.6055
17.3581
17.3581
37.344
37.344
28.9278
28.9278
16.7363
16.7363
13.9457
13.9457
13.4461
13.4461
20.0853
20.0853
17.3581
17.3581
11.6204
11.6204
32.2735
32.2735
32.2735
32.2735
28.9278
28.9278
25.9289
25.9289
24.1044
24.1044
19.3657
19.3657
25
25
23.2409
23.2409
16.7363
16.7363
14.4639
14.4639
15.5587
15.5587
31.1173
31.1173
13.4461
13.4461
18.672
18.672
15.5587
15.5587
13.9457
13.9457
12.9644
12.9644
30.0026
30.0026
31.1173
31.1173
25.9289
25.9289
24.1044
24.1044
23.2409
23.2409
33.4726
33.4726
33.4726
33.4726
21.6055
21.6055
16.7363
16.7363
34.7163
34.7163
12.0522
12.0522
16.7363
16.7363
14.4639
14.4639
28.9278
28.9278
24.1044
24.1044
20.8316
20.8316
32.2735
32.2735
28.9278
28.9278
30.0026
30.0026
22.4083
22.4083
12.9644
12.9644
19.3657
19.3657
25
25
17.3581
17.3581
16.1367
16.1367
30.0026
30.0026
20.8316
20.8316
22.4083
22.4083
26.8923
26.8923
13.9457
13.9457
26.8923
26.8923
28.9278
28.9278
16.7363
16.7363
25.9289
25.9289
16.7363
16.7363
36.0062
36.0062
19.3657
19.3657
18.672
18.672
33.4726
33.4726
21.6055
21.6055
32.2735
32.2735
22.4083
22.4083
19.3657
19.3657
23.2409
23.2409
19.3657
19.3657
28.9278
28.9278
11.2042
11.2042
25.9289
25.9289
18.0031
18.0031
27.8914
27.8914
16.1367
16.1367
36.0062
36.0062
24.1044
24.1044
37.344
37.344
24.1044
24.1044
13.9457
13.9457
38.7315
38.7315
19.3657
19.3657
32.2735
32.2735
15.0013
15.0013
26.8923
26.8923
18.672
18.672
30.0026
30.0026
13.9457
13.9457
26.8923
26.8923
14.4639
14.4639
23.2409
23.2409
60.0051
60.0051
26.8923
26.8923
12.9644
12.9644
25.9289
25.9289
16.7363
16.7363
30.0026
30.0026
46.4818
46.4818
12.5
12.5
89.6332
89.6332
25.9289
25.9289
32.2735
32.2735
27.8914
27.8914
13.4461
13.4461
37.344
37.344
15.5587
15.5587
25.9289
25.9289
53.7845
53.7845
22.4083
22.4083
41.6631
41.6631
25
25
46.4818
46.4818
26.8923
26.8923
31.1173
31.1173
18.672
18.672
40.1706
40.1706
20.8316
20.8316
36.0062
36.0062
26.8923
26.8923
30.0026
30.0026
23.2409
23.2409
36.0062
36.0062
25
25
40.1706
40.1706
18.672
18.672
27.8914
27.8914
19.3657
19.3657
27.8914
27.8914
11.6204
11.6204
25
25
12.9644
12.9644
11.6204
11.6204
80.3411
80.3411
25.9289
25.9289
33.4726
33.4726
16.1367
16.1367
28.9278
28.9278
17.3581
17.3581
24.1044
24.1044
62.2346
62.2346
26.8923
26.8923
62.2346
62.2346
16.7363
16.7363
32.2735
32.2735
15.0013
15.0013
26.8923
26.8923
14.4639
14.4639
30.0026
30.0026
15.0013
15.0013
25
25
15.0013
15.0013
21.6055
21.6055
36.0062
36.0062
12.5
12.5
34.7163
34.7163
18.0031
18.0031
21.6055
21.6055
32.2735
32.2735
22.4083
22.4083
26.8923
26.8923
13.4461
13.4461
25
25
25
25
24.1044
24.1044
26.8923
26.8923
50
50
15.5587
15.5587
12.5
12.5
18.0031
18.0031
21.6055
21.6055
33.4726
33.4726
16.1367
16.1367
36.0062
36.0062
48.2088
48.2088
25.9289
25.9289
31.1173
31.1173
18.0031
18.0031
24.1044
24.1044
41.6631
41.6631
23.2409
23.2409
31.1173
31.1173
15.0013
15.0013
24.1044
24.1044
25.9289
25.9289
12.9644
12.9644
27.8914
27.8914
13.9457
13.9457
17.3581
17.3581
36.0062
36.0062
13.4461
13.4461
15.0013
15.0013
30.0026
30.0026
21.6055
21.6055
22.4083
22.4083
26.8923
26.8923
14.4639
14.4639
22.4083
22.4083
25.9289
25.9289
48.2088
48.2088
21.6055
21.6055
25.9289
25.9289
38.7315
38.7315
20.8316
20.8316
28.9278
28.9278
41.6631
41.6631
15.5587
15.5587
27.8914
27.8914
28.9278
28.9278
25
25
32.2735
32.2735
34.7163
34.7163
22.4083
22.4083
25
25
31.1173
31.1173
20.8316
20.8316
16.1367
16.1367
30.0026
30.0026
32.2735
32.2735
17.3581
17.3581
20.8316
20.8316
34.7163
34.7163
12.5
12.5
22.4083
22.4083
25.9289
25.9289
27.8914
27.8914
55.7829
55.7829
21.6055
21.6055
23.2409
23.2409
31.1173
31.1173
55.7829
55.7829
18.0031
18.0031
23.2409
23.2409
30.0026
30.0026
48.2088
48.2088
12.5
12.5
22.4083
22.4083
26.8923
26.8923
48.2088
48.2088
18.0031
18.0031
25
25
26.8923
26.8923
57.8555
57.8555
19.3657
19.3657
26.8923
26.8923
28.9278
28.9278
86.4222
86.4222
22.4083
22.4083
20.0853
20.0853
25
25
22.4083
22.4083
46.4818
46.4818
20.0853
20.0853
11.6204
11.6204
25.9289
25.9289
44.8166
44.8166
21.6055
21.6055
28.9278
28.9278
26.8923
26.8923
25
25
31.1173
31.1173
27.8914
27.8914
24.1044
24.1044
22.4083
22.4083
27.8914
27.8914
21.6055
21.6055
24.1044
24.1044
22.4083
22.4083
14.4639
14.4639
26.8923
26.8923
20.0853
20.0853
18.0031
18.0031
25.9289
25.9289
24.1044
24.1044
20.8316
20.8316
20.0853
20.0853
12.5
12.5
27.8914
27.8914
12.9644
12.9644
18.0031
18.0031
18.0031
18.0031
12.0522
12.0522
13.4461
13.4461
20.8316
20.8316
16.7363
16.7363
22.4083
22.4083
18.672
18.672
23.2409
23.2409
16.1367
16.1367
16.1367
16.1367
24.1044
24.1044
24.1044
24.1044
23.2409
23.2409
12.9644
12.9644
18.0031
18.0031
25
25
16.1367
16.1367
13.4461
13.4461
15.5587
15.5587
13.9457
13.9457
19.3657
19.3657
15.0013
15.0013
20.8316
20.8316
15.5587
15.5587
16.7363
16.7363
16.1367
16.1367
23.2409
23.2409
17.3581
17.3581
18.672
18.672
10.4158
10.4158
23.2409
23.2409
10.8028
10.8028
21.6055
21.6055
18.672
18.672
13.4461
13.4461
16.1367
16.1367
20.8316
20.8316
21.6055
21.6055
16.1367
16.1367
18.672
18.672
16.7363
16.7363
15.0013
15.0013
12.0522
12.0522
12.0522
12.0522
14.4639
14.4639
13.9457
13.9457
15.0013
15.0013
15.5587
15.5587
12.5
12.5
31.1173
31.1173
15.0013
15.0013
60.0051
60.0051
57.8555
57.8555
50
50
53.7845
53.7845
51.8578
51.8578
83.3262
83.3262
50
50
53.7845
53.7845
77.463
77.463
64.547
64.547
66.9452
66.9452
64.547
64.547
69.4326
69.4326
64.547
64.547
50
50
43.2111
43.2111
40.1706
40.1706
38.7315
38.7315
44.8166
44.8166
41.6631
41.6631
41.6631
41.6631
38.7315
38.7315
40.1706
40.1706
38.7315
38.7315
38.7315
38.7315
37.344
37.344
38.7315
38.7315
38.7315
38.7315
37.344
37.344
41.6631
41.6631
34.7163
34.7163
34.7163
34.7163
37.344
37.344
28.9278
28.9278
36.0062
36.0062
30.0026
30.0026
33.4726
33.4726
32.2735
32.2735
32.2735
32.2735
33.4726
33.4726
30.0026
30.0026
30.0026
30.0026
31.1173
31.1173
27.8914
27.8914
31.1173
31.1173
25
25
25.9289
25.9289
22.4083
22.4083
27.8914
27.8914
23.2409
23.2409
25.9289
25.9289
25
25
28.9278
28.9278
16.1367
16.1367
20.0853
20.0853
18.0031
18.0031
20.0853
20.0853
13.9457
13.9457
57.8555
57.8555
57.8555
57.8555
60.0051
60.0051
40.1706
40.1706
31.1173
31.1173
24.1044
24.1044
17.3581
17.3581
19.3657
19.3657
13.4461
13.4461
15.5587
15.5587
62.2346
62.2346
36.0062
36.0062
37.344
37.344
23.2409
23.2409
23.2409
23.2409
12.0522
12.0522
18.672
18.672
50
50
36.0062
36.0062
30.0026
30.0026
22.4083
22.4083
18.672
18.672
13.9457
13.9457
92.9635
92.9635
33.4726
33.4726
23.2409
23.2409
11.2042
11.2042
13.4461
13.4461
34.7163
34.7163
22.4083
22.4083
12.9644
12.9644
28.9278
28.9278
15.5587
15.5587
10.0426
10.0426
27.8914
27.8914
20.8316
20.8316
50
50
25
25
23.2409
23.2409
17.3581
17.3581
43.2111
43.2111
15.0013
15.0013
48.2088
48.2088
36.0062
36.0062
16.1367
16.1367
27.8914
27.8914
18.0031
18.0031
33.4726
33.4726
12.5
12.5
74.6879
74.6879
12.0522
12.0522
60.0051
60.0051
25
25
57.8555
57.8555
15.5587
15.5587
38.7315
38.7315
20.0853
20.0853
38.7315
38.7315
13.4461
13.4461
60.0051
60.0051
10.4158
10.4158
27.8914
27.8914
43.2111
43.2111
51.8578
51.8578
96.4176
96.4176
33.4726
33.4726
48.2088
48.2088
41.6631
41.6631
43.2111
43.2111
43.2111
43.2111
37.344
37.344
26.8923
26.8923
27.8914
27.8914
25
25
46.4818
46.4818
46.4818
46.4818
41.6631
41.6631
43.2111
43.2111
43.2111
43.2111
44.8166
44.8166
40.1706
40.1706
44.8166
44.8166
40.1706
40.1706
36.0062
36.0062
40.1706
40.1706
34.7163
34.7163
36.0062
36.0062
34.7163
34.7163
34.7163
34.7163
33.4726
33.4726
32.2735
32.2735
33.4726
33.4726
32.2735
32.2735
30.0026
30.0026
26.8923
26.8923
38.7315
38.7315
30.0026
30.0026
32.2735
32.2735
31.1173
31.1173
28.9278
28.9278
31.1173
31.1173
30.0026
30.0026
34.7163
34.7163
25
25
28.9278
28.9278
30.0026
30.0026
28.9278
28.9278
25.9289
25.9289
28.9278
28.9278
27.8914
27.8914
11.2042
11.2042
24.1044
24.1044
21.6055
21.6055
25.9289
25.9289
25.9289
25.9289
27.8914
27.8914
24.1044
24.1044
23.2409
23.2409
31.1173
31.1173
19.3657
19.3657
25.9289
25.9289
20.0853
20.0853
34.7163
34.7163
22.4083
22.4083
20.8316
20.8316
22.4083
22.4083
28.9278
28.9278
20.8316
20.8316
25.9289
25.9289
11.2042
11.2042
26.8923
26.8923
22.4083
22.4083
11.6204
11.6204
22.4083
22.4083
21.6055
21.6055
21.6055
21.6055
21.6055
21.6055
21.6055
21.6055
20.0853
20.0853
23.2409
23.2409
20.8316
20.8316
24.1044
24.1044
23.2409
23.2409
15.5587
15.5587
15.0013
15.0013
15.5587
15.5587
20.0853
20.0853
21.6055
21.6055
21.6055
21.6055
14.4639
14.4639
12.5
12.5
11.6204
11.6204
19.3657
19.3657
16.1367
16.1367
20.8316
20.8316
12.0522
12.0522
20.8316
20.8316
15.0013
15.0013
16.7363
16.7363
15.0013
15.0013
10.8028
10.8028
21.6055
21.6055
18.672
18.672
14.4639
14.4639
14.4639
14.4639
13.9457
13.9457
13.4461
13.4461
20.0853
20.0853
20.8316
20.8316
18.0031
18.0031
18.0031
18.0031
20.8316
20.8316
20.0853
20.0853
18.672
18.672
12.9644
12.9644
12.0522
12.0522
20.0853
20.0853
17.3581
17.3581
15.5587
15.5587
14.4639
14.4639
11.2042
11.2042
15.5587
15.5587
11.6204
11.6204
11.2042
11.2042
12.9644
12.9644
17.3581
17.3581
13.9457
13.9457
17.3581
17.3581
12.9644
12.9644
12.9644
12.9644
12.5
12.5
12.5
12.5
15.5587
15.5587
12.9644
12.9644
15.0013
15.0013
12.5
12.5
13.4461
13.4461
14.4639
14.4639
12.5
12.5
9.68287
9.68287
14.4639
14.4639
14.4639
14.4639
13.9457
13.9457
13.4461
13.4461
7.00259e-312
7.00259e-312
7.00259e-312
7.00259e-312
7.00259e-312
7.00259e-312
7.00259e-312
7.00259e-312
7.00259e-312
7.00259e-312
7.00259e-312
7.00259e-312
7.00259e-312
7.00259e-312
7.00259e-312
7.00259e-312
7.00259e-312
7.00259e-312
7.00259e-312
7.00259e-312
7.00259e-312
7.00259e-312
7.00259e-312
7.00259e-312
7.00259e-312
7.00259e-312
7.00259e-312
7.00259e-312
7.00259e-312
7.00259e-312
7.00259e-312
7.00259e-312
7.00259e-312
7.00259e-312
7.00259e-312
7.00259e-312
7.00259e-312
7.00259e-312
7.00259e-312
7.00259e-312
7.00259e-312
7.00259e-312
7.00259e-312
7.00259e-312
7.00259e-312
7.00259e-312
7.00259e-312
7.00259e-312
7.00259e-312
7.00259e-312
7.00259e-312
7.00259e-312
7.00259e-312
7.00259e-312
7.00259e-312
7.00259e-312
7.00259e-312
7.00259e-312
7.00259e-312
7.00259e-312
7.00259e-312
7.00259e-312
7.00259e-312
7.00259e-312
7.00259e-312
7.00259e-312
7.00259e-312
7.00259e-312
7.00259e-312
7.00259e-312
7.00259e-312
7.00259e-312
7.00259e-312
7.00259e-312
7.00259e-312
7.00259e-312
7.00259e-312
7.00259e-312
7.00259e-312
7.00259e-312
7.00259e-312
7.00259e-312
7.00259e-312
7.00259e-312
7.00259e-312
7.00259e-312
7.00259e-312
7.00259e-312
7.00259e-312
7.00259e-312
7.00259e-312
7.00259e-312
7.00259e-312
7.00259e-312
7.00259e-312
7.00259e-312
7.00259e-312
7.00259e-312
7.00259e-312
7.00259e-312
7.00259e-312
7.00259e-312
7.00259e-312
7.00259e-312
7.00259e-312
7.00259e-312
7.00259e-312
7.00259e-312
7.00259e-312
7.00259e-312
7.00259e-312
7.00259e-312
7.00259e-312
7.00259e-312
7.00259e-312
7.00259e-312
7.00259e-312
7.00259e-312
7.00259e-312
7.00259e-312
7.00259e-312
7.00259e-312
7.00259e-312
7.00259e-312
7.00259e-312
7.00259e-312
7.00259e-312
7.00259e-312
7.00259e-312
7.00259e-312
7.00259e-312
7.00259e-312
7.00259e-312
7.00259e-312
7.00259e-312
7.00259e-312
7.00259e-312
7.00259e-312
7.00259e-312
7.00259e-312
7.00259e-312
7.00259e-312
7.00259e-312
7.00259e-312
7.00259e-312
7.00259e-312
7.00259e-312
7.00259e-312
7.00259e-312
7.00259e-312
7.00259e-312
7.00259e-312
7.00259e-312
7.00259e-312
7.00259e-312
7.00259e-312
7.00259e-312
7.00259e-312
7.00259e-312
7.00259e-312
7.00259e-312
7.00259e-312
7.00259e-312
7.00259e-312
7.00259e-312
7.00259e-312
7.00259e-312
7.00259e-312
7.00259e-312
7.00259e-312
7.00259e-312
7.00259e-312
7.00259e-312
7.00259e-312
7.00259e-312
7.00259e-312
7.00259e-312
7.00259e-312
7.00259e-312
7.00259e-312
7.00259e-312
7.00259e-312
7.00259e-312
7.00259e-312
7.00259e-312
7.00259e-312
7.00259e-312
7.00259e-312
7.00259e-312
7.00259e-312
7.00259e-312
7.00259e-312
7.00259e-312
7.00259e-312
7.00259e-312
7.00259e-312
7.00259e-312
7.00259e-312
7.00259e-312
7.00259e-312
7.00259e-312
7.00259e-312
7.00259e-312
7.00259e-312
7.00259e-312
7.00259e-312
7.00259e-312
7.00259e-312
7.00259e-312
7.00259e-312
7.00259e-312
7.00259e-312
7.00259e-312
7.00259e-312
7.00259e-312
7.00259e-312
7.00259e-312
7.00259e-312
7.00259e-312
7.00259e-312
7.00259e-312
7.00259e-312
7.00259e-312
7.00259e-312
7.00259e-312
7.00259e-312
7.00259e-312
7.00259e-312
7.00259e-312
7.00259e-312
7.00259e-312
7.00259e-312
7.00259e-312
7.00259e-312
7.00259e-312
7.00259e-312
7.00259e-312
7.00259e-312
7.00259e-312
7.00259e-312
7.00259e-312
7.00259e-312
7.00259e-312
7.00259e-312
7.00259e-312
7.00259e-312
7.00259e-312
7.00259e-312
7.00259e-312
7.00259e-312
7.00259e-312
7.00259e-312
7.00259e-312
7.00259e-312
7.00259e-312
7.00259e-312
7.00259e-312
7.00259e-312
7.00259e-312
7.00259e-312
7.00259e-312
7.00259e-312
7.00259e-312
7.00259e-312
7.00259e-312
7.00259e-312
7.00259e-312
7.00259e-312
7.00259e-312
7.00259e-312
7.00259e-312
7.00259e-312
7.00259e-312
7.00259e-312
7.00259e-312
7.00259e-312
7.00259e-312
7.00259e-312
7.00259e-312
7.00259e-312
7.00259e-312
7.00259e-312
7.00259e-312
7.00259e-312
7.00259e-312
7.00259e-312
7.00259e-312
7.00259e-312
7.00259e-312
7.00259e-312
7.00259e-312
7.00259e-312
7.00259e-312
7.00259e-312
7.00259e-312
7.00259e-312
7.00259e-312
7.00259e-312
7.00259e-312
7.00259e-312
7.00259e-312
7.00259e-312
7.00259e-312
7.00259e-312
7.00259e-312
7.00259e-312
7.00259e-312
7.00259e-312
7.00259e-312
7.00259e-312
7.00259e-312
7.00259e-312
7.00259e-312
7.00259e-312
7.00259e-312
7.00259e-312
7.00259e-312
7.00259e-312
7.00259e-312
7.00259e-312
7.00259e-312
7.00259e-312
7.00259e-312
7.00259e-312
7.00259e-312
7.00259e-312
7.00259e-312
7.00259e-312
7.00259e-312
7.00259e-312
7.00259e-312
7.00259e-312
7.00259e-312
7.00259e-312
7.00259e-312
7.00259e-312
7.00259e-312
7.00259e-312
7.00259e-312
7.00259e-312
7.00259e-312
7.00259e-312
7.00259e-312
7.00259e-312
7.00259e-312
7.00259e-312
7.00259e-312
7.00259e-312
7.00259e-312
7.00259e-312
7.00259e-312
7.00259e-312
7.00259e-312
7.00259e-312
7.00259e-312
7.00259e-312
7.00259e-312
7.00259e-312
7.00259e-312
7.00259e-312
7.00259e-312
7.00259e-312
7.00259e-312
7.00259e-312
7.00259e-312
7.00259e-312
7.00259e-312
7.00259e-312
7.00259e-312
7.00259e-312
7.00259e-312
7.00259e-312
7.00259e-312
7.00259e-312
7.00259e-312
7.00259e-312
7.00259e-312
7.00259e-312
7.00259e-312
7.00259e-312
7.00259e-312
7.00259e-312
7.00259e-312
7.00259e-312
7.00259e-312
7.00259e-312
7.00259e-312
7.00259e-312
7.00259e-312
7.00259e-312
7.00259e-312
7.00259e-312
7.00259e-312
7.00259e-312
7.00259e-312
7.00259e-312
7.00259e-312
7.00259e-312
7.00259e-312
7.00259e-312
7.00259e-312
7.00259e-312
7.00259e-312
7.00259e-312
7.00259e-312
7.00259e-312
7.00259e-312
7.00259e-312
7.00259e-312
7.00259e-312
7.00259e-312
7.00259e-312
7.00259e-312
7.00259e-312
7.00259e-312
7.00259e-312
7.00259e-312
7.00259e-312
7.00259e-312
7.00259e-312
7.00259e-312
7.00259e-312
7.00259e-312
7.00259e-312
7.00259e-312
7.00259e-312
7.00259e-312
7.00259e-312
7.00259e-312
