# vtk DataFile Version 3.0
Tree
ASCII
DATASET POLYDATA
POINTS 1732 float
40693.5 56318.5 68.45
40693.5 56318.5 2568.45
34443.5 55443.5 6443.45
33438.5 52817.5 12801.5
33740 53605.3 10894.1
37151.5 52322.5 13543.5
33667.6 52915.2 12610.4
34428.5 51827.5 15523.5
36715.4 52183.8 13313.2
40615.5 48857.5 17008.4
33667.6 52915.2 12610.4
29726.5 49847.5 17256.4
31902.9 51720.8 14151
26756.5 50094.5 13048.5
30901.8 50859.1 15579.5
33191.5 49847.5 19730.4
27834.1 50152.5 13623.4
24528.4 47372.5 15028.5
26649.7 49071.7 14438.3
26261.5 47619.5 18741.4
40036.8 48955.1 15918.3
43338.5 44649.5 17008.4
40410.1 48854.6 16879.4
40368.5 48362.5 20226.4
32073.6 50187.9 18135.9
30468.5 48857.5 20968.4
40172.5 48572 19480.4
37398.5 49352.5 23196.4
33548.5 52721.6 12759
30193.5 52443.4 10943.5
34567.7 51784.5 15131.8
36160.5 50094.5 17750.4
42050.8 46467.3 16964.4
43338.5 45639.5 19730.4
30520.6 49078.1 20238.2
27745.5 47867.5 21215.4
42902.2 45944.7 19080.7
42348.5 46629.5 21711.4
37541.2 49122.3 22152.1
34181.5 49352.5 23443.4
24858.5 47623.4 15181.1
22795.4 45887.5 17256.4
42952.2 45194.8 16995.2
42843.5 40689.5 14286.5
39385.5 48691.3 20791.3
39625.5 48362.5 23691.4
35638.8 50541.2 17497.9
35913.5 49847.5 20226.4
42965.6 43664.7 16241.5
43585.5 41679.5 17256.4
37352.5 49304.2 23054.7
36160.5 49599.5 25423.5
43283.5 45622.5 19631.9
44328.5 44154.5 20968.4
43135.5 40958.2 14371.3
43585.5 39204.5 13048.5
42592.9 46365 21048.3
43585.5 45639.5 22948.4
28245.5 48124.1 21330.1
26756.5 47619.5 22948.4
30441.8 48964.5 20891.5
29726.5 48857.5 24928.4
23269.6 46122.3 17194.9
22548.4 44897.5 19483.4
22910.6 45346.5 18981.9
23538.4 45392.5 20968.4
36448.3 49498 25216.2
35418.5 49352.5 32106.5
43181.2 41697.8 15077.1
44576.5 38957.5 15771.5
36242 49291.5 31269.2
37893.5 48857.5 37798.5
44108.4 44193.8 20658.1
45070.5 41184.5 21711.4
35436.8 49409.5 31925.6
29973.5 50589.5 35323.5
37094.5 49037.4 37119.8
36408.5 49104.5 43738.5
39922.7 48339 23196.1
42348.5 47372.5 27403.5
37653.8 48911.5 37594.9
43091.5 46877.5 35818.5
30962.9 50028.2 34041.9
24943.5 49193.4 33693.4
22686 45068.1 19292.8
19578.4 40194.5 17008.4
42039.1 46699 36263.4
46061.5 41679.5 35570.5
43615 41780.6 17266.2
44576.5 39204.5 18741.4
20464.1 41219.7 17867.4
19578.4 34997.5 19978.4
19969.4 36441.6 19116.9
21558.4 30294.5 16265.5
21737 30560.5 16787
23785.4 25097.5 15276.5
23786.8 25879.5 15857.5
27745.5 20147.4 16513.4
27060 47851 22871.7
24776.4 47867.5 26908.5
24964.5 47446.6 26176.9
21063.4 44897.5 30621.5
30962.9 50028.2 34041.9
24776.4 46629.5 39036.5
23272.8 45431.3 20592.8
22300.4 46134.5 23691.4
44729 42419.7 21658.5
46308.5 39699.5 27651.5
45916.6 39637.1 26310.4
46555.5 34007.5 29630.5
46036.6 35007.7 29357.8
44081.5 30294.5 34085.5
26497.3 46592.6 37822.9
24280.4 41679.5 40273.5
25208.9 43103 39823.5
27251.5 39204.5 45223.5
44268.9 39143 15687.9
45070.5 34997.5 16513.4
19695.7 35430.7 19719.9
19330.4 35739.5 26413.5
19698.1 36272.1 25634.4
20568.4 38709.5 32106.5
45371.9 33405.2 30965.2
44823.5 26829.5 28888.5
19613.6 35127.5 19900.9
21311.4 29552.5 23691.4
21303.4 30434 22460.1
24528.4 25097.5 22206.4
26838.6 39460.2 43834.8
28241.5 33512.5 45718.5
30294.6 48994.5 24127.3
32200.5 49599.5 28145.5
44830 36241.1 16265.7
44576.5 31532.5 11563.5
45651.1 34078.2 30290.1
45813.5 35739.5 36066.5
45661.6 35925.2 35505.7
45318.5 38957.5 41510.5
44651.5 27570.7 28586.4
43338.5 22374.4 24928.4
24558.9 42106.6 40138.5
23538.4 36234.5 37798.5
43414 23231.7 24864.1
41853.5 19157.4 19483.4
22629.2 28360.8 22758.3
25270.5 25592.5 27898.5
24270.6 37327.3 38627.8
26508.5 31037.5 38540.5
26130.6 32708.8 38825.3
30221.5 29304.5 42253.5
25215.8 25854.8 26787.8
29973.5 22127.4 29878.5
22600.7 44962.3 19411
20073.4 43164.5 22453.4
20617.2 43476.7 22290.2
19083.4 41927.5 27155.5
40548.1 47451.2 36716.1
43585.5 44154.5 41015.5
19440.7 35899.3 26179.8
21558.4 32274.5 30373.5
45558.7 36834.9 37307.1
43338.5 33759.5 42006.5
44004.6 34682.1 40596.7
40863.5 28809.5 39778.5
26395.1 31538.9 38625.9
25023.5 29057.5 33591.5
28929.4 23033.8 28789.8
34428.5 19899.4 26908.5
27815.3 23880.1 28189.2
29726.5 25097.5 34581.5
44604.7 39600.7 18773.9
46061.5 37472.5 20968.4
22214.2 45339.6 30267.7
21806.4 43907.5 34333.5
44771.9 27051.9 28797.9
42100.5 24354.4 30126.5
29824.5 48919.3 24876
28488.5 49104.5 27898.5
20753.8 34222.9 17352.3
21558.4 33017.5 13543.5
30505.3 50317.3 34996.4
30715.5 50589.5 39530.5
44921.7 38695.1 41102.1
43091.5 40689.5 45470.5
43284.9 40711.5 44567.2
40943.4 44693.4 47443.4
45363.6 41105 24368.8
45566.5 42917.5 28145.5
24255.2 39724.7 39163.8
22053.4 38462.5 35818.5
27739.3 47421.5 37491.6
26756.5 45887.5 42748.5
45330.3 42702.1 26974.7
44328.5 45392.5 28145.5
21683.8 30420.8 16338.5
21806.4 29799.5 12801.5
43320.4 33901.2 41743.2
40368.5 32027.5 43985.5
22464.6 46104.3 23640.8
22053.4 46629.5 26166.5
44395.2 31203.7 33658.8
43833.5 30789.5 37055.5
43332.4 33807.7 41917
41853.5 35987.5 46461.5
44830 36241.1 16265.7
45813.5 34997.5 18741.4
44109.3 30418.5 33895.2
42843.5 27324.5 33591.5
21352.1 43265.1 19212.1
19826.4 41927.5 20226.4
44002 30834.5 35373.5
42348.5 28562.5 36560.5
22937.7 45957.9 17237.9
21063.4 43659.5 16513.4
28714.7 48908.8 35864.5
26013.5 49352.5 36560.5
28979.2 25306.8 33419.1
28488.5 27572.5 36808.5
37002.8 49302.6 28033
39378.5 48857.5 30126.5
21514.9 32916.8 30209.4
22795.4 31779.5 32600.5
41669.3 47712.3 27057
42348.5 47619.5 30373.5
42389.1 42316 45461.3
41358.5 45144.5 43985.5
20134.3 42046 19917.8
19083.4 40194.5 19978.4
21545.3 32467.2 30324.3
22053.4 29799.5 27403.5
28862.6 49191.3 27745.2
28488.5 49599.5 30373.5
24957.7 35038.1 38338.3
24528.4 32522.5 36066.5
22176.8 46472 25408.8
20321.4 44897.5 26908.5
42968.5 34874.6 43468.3
43585.5 37224.5 44233.5
23911.8 47049.6 27997.4
23291.4 48114.5 29878.5
22257.6 32257.2 31596.2
23538.4 29799.5 31363.5
20151.9 39214.4 17901.6
19578.4 37472.5 16513.4
24266 38046.5 38788.6
25518.5 35492.5 41263.5
45848.4 37603.2 20993.1
46555.5 36234.5 22700.4
22459 38316.5 36307.6
21311.4 36234.5 34085.5
25088.2 24017.9 16315.5
26261.5 22622.4 19730.4
45239.7 32505.1 12101.8
46308.5 31284.5 10078.5
42096.5 36160.8 46039.2
41606.5 37719.5 47946.5
45533.8 42786.8 27933.1
46061.5 41927.5 29878.5
23855.2 25181.8 15372.8
24776.4 23117.4 14286.5
42401.4 47388.1 30141.4
43091.5 46877.5 32600.5
25287.4 25747.1 27745.4
25765.5 26582.5 30868.5
31673.9 49385.2 27874.4
31953.5 49352.5 30621.5
25962.3 23186.1 19275.6
26261.5 23612.4 21711.4
19297.8 40417.2 20100.6
18588.4 38214.5 20968.4
27214.8 45810.8 41771.7
27745.5 43659.5 44480.5
31752.6 49413.7 29907.9
30221.5 50094.5 31611.5
25495.1 35620.2 40808.1
26508.5 33759.5 41758.5
38875.7 48943 30011.6
40368.5 48609.5 33343.5
27666.3 43638.3 43999.2
27993.5 41432.5 45470.5
45567.9 35161.3 18035.8
46308.5 32274.5 18741.4
29918.5 22368.4 29637.5
33438.5 21879.4 30868.5
45967.1 41916.7 29344.7
46555.5 39947.5 30373.5
26509.9 34026.1 41775.9
27745.5 32769.5 42995.5
19915.3 42664.2 24233.4
18588.4 39947.5 24681.4
28838.7 27331.2 36657.2
28983.5 28562.5 38788.5
42709.8 46694.1 35912.5
44328.5 45392.5 34333.5
29263.2 25227.3 33860.8
32200.5 23117.4 33591.5
46405.5 40189.7 30423
46555.5 38709.5 31858.5
29697.2 25174.3 34485.8
31458.5 25592.5 36560.5
22839.9 46071.4 29567.7
22300.4 46877.5 32106.5
27259.5 37675.9 44399.9
27993.5 37224.5 46955.5
19054.3 40761.1 24709
19083.4 38957.5 27155.5
40036.8 48955.1 15918.3
38636.5 49104.5 18245.4
21460.2 44885.9 30512.8
20073.4 42174.5 31115.5
37842.4 50893.3 14903.7
37893.5 50342.5 16760.4
20551.7 42733.4 31160.7
20815.4 40937.5 32600.5
33791.6 54502.2 8050.86
32193.5 53193.4 8693.45
45721.2 35593.7 33989.2
46555.5 38709.5 35076.5
35253.4 49271.9 22748.9
33438.5 49352.5 21711.4
36340.7 49258 33203.1
34181.5 49847.5 35076.5
27812.7 47939.3 21243.9
26261.5 47372.5 20968.4
36466.4 49245.7 35496
34923.5 49847.5 37551.5
43540.5 45564.7 22723.6
44576.5 44402.5 24185.4
45767.9 35795.2 35898.3
45318.5 33264.5 37055.5
26048.6 47781.9 17696
24776.4 46629.5 18988.4
20792.3 41466.6 32363.5
21558.4 41184.5 35076.5
36201.9 49524.9 25341
34428.5 49352.5 25918.5
45625.8 34862.2 36153.2
45566.5 32769.5 34828.5
23230.4 45815.5 21814.9
24528.4 46877.5 23443.4
22266.9 44308.5 33818.6
23043.4 43907.5 36560.5
35244.2 49431.8 25652.9
34923.5 49599.5 27403.5
43402.7 24299.9 27038.4
42595.5 22622.4 26908.5
35018.1 49550 27302.9
34923.5 49599.5 29383.5
24451.7 32742 36057.9
24033.4 31532.5 34581.5
45611.6 38262.8 20632.9
46555.5 38462.5 22700.4
27754 47229 39713.6
28241.5 48114.5 41758.5
42593.8 47256.1 31514.2
41853.5 47867.5 33096.5
27677 32982.7 43000.7
28736.5 32274.5 44233.5
43649.5 44884.7 36409.1
44823.5 44154.5 37798.5
28589 32431.1 44143.3
29726.5 32027.5 45966.5
45498.3 42341 35420.6
46308.5 40937.5 33838.5
34036 54021.7 9399.16
35666.5 53312.5 10573.5
35062.9 49754.3 36996.5
32943.5 50342.5 37551.5
44335.3 43650.8 21068.9
44823.5 43659.5 22453.4
21447.4 29652.5 23517.5
22300.4 28314.5 25175.5
44995.7 34441.9 14920
45070.5 33017.5 15028.5
25511.5 35530.8 41126.9
26508.5 36482.5 42500.5
20289.9 35408.7 17960.3
20073.4 35244.5 15771.5
31824.1 50691.9 16662.6
33191.5 50837.5 17256.4
45852 34352.7 32032.8
46308.5 33759.5 33343.5
45115.3 39280.3 19656.9
45813.5 39699.5 20721.4
28344 48343.6 36482.8
27498.5 49352.5 38788.5
37005.5 49332.1 26655.7
38883.5 48857.5 27651.5
36116.5 48815.2 43240.4
35666.5 48609.5 44976.5
28414.4 49751.4 30110.3
27993.5 50342.5 31611.5
28568.4 27497.8 36694.4
27003.5 28314.5 36313.5
39946.2 48598.1 33113.6
40121.5 48362.5 34828.5
28295.7 35430.1 45788.2
28983.5 34749.5 46708.5
38746 48371 37490
39873.5 47867.5 38540.5
45293.6 41996.8 25254.8
45070.5 43412.5 25423.5
23700.1 27243.3 25820.2
23785.4 27077.5 27403.5
36490.3 49243.2 34062.1
37893.5 49104.5 34828.5
30432.5 50482.6 16070.8
28983.5 49599.5 15771.5
36976.8 48882.9 39213.9
38140.5 48362.5 40273.5
45305.2 41375.9 23025.6
46061.5 40194.5 23443.4
41007.8 32615.8 43863.2
40121.5 32522.5 45470.5
20941.7 45461.1 26525
20568.4 45639.5 28393.5
29301 29810.8 40962.4
30221.5 28562.5 40768.5
[...]
CELL_DATA 1731
SCALARS radius float
LOOKUP_TABLE default
2.122e-314
100
100
100
72.0123
72.0123
66.9452
66.9452
69.4326
69.4326
64.547
64.547
55.7829
55.7829
50
50
48.2088
48.2088
44.8166
44.8166
55.7829
55.7829
51.8578
51.8578
46.4818
46.4818
48.2088
48.2088
64.547
64.547
57.8555
57.8555
51.8578
51.8578
41.6631
41.6631
46.4818
46.4818
43.2111
43.2111
41.6631
41.6631
50
50
44.8166
44.8166
53.7845
53.7845
44.8166
44.8166
41.6631
41.6631
44.8166
44.8166
41.6631
41.6631
44.8166
44.8166
38.7315
38.7315
40.1706
40.1706
37.344
37.344
34.7163
34.7163
37.344
37.344
43.2111
43.2111
27.8914
27.8914
41.6631
41.6631
26.8923
26.8923
23.2409
23.2409
43.2111
43.2111
22.4083
22.4083
22.4083
22.4083
33.4726
33.4726
18.672
18.672
41.6631
41.6631
27.8914
27.8914
23.2409
23.2409
20.8316
20.8316
18.0031
18.0031
34.7163
34.7163
31.1173
31.1173
21.6055
21.6055
33.4726
33.4726
36.0062
36.0062
28.9278
28.9278
23.2409
23.2409
18.0031
18.0031
15.5587
15.5587
37.344
37.344
22.4083
22.4083
19.3657
19.3657
21.6055
21.6055
21.6055
21.6055
18.0031
18.0031
12.9644
12.9644
37.344
37.344
33.4726
33.4726
22.4083
22.4083
19.3657
19.3657
19.3657
19.3657
13.9457
13.9457
16.7363
16.7363
15.5587
15.5587
11.6204
11.6204
9.68287
9.68287
13.4461
13.4461
32.2735
32.2735
27.8914
27.8914
20.0853
20.0853
18.0031
18.0031
18.672
18.672
18.0031
18.0031
9.00154
9.00154
12.5
12.5
12.9644
12.9644
38.7315
38.7315
24.1044
24.1044
18.672
18.672
34.7163
34.7163
21.6055
21.6055
20.8316
20.8316
15.5587
15.5587
13.9457
13.9457
32.2735
32.2735
12.5
12.5
19.3657
19.3657
27.8914
27.8914
19.3657
19.3657
16.7363
16.7363
31.1173
31.1173
20.0853
20.0853
16.1367
16.1367
32.2735
32.2735
18.0031
18.0031
31.1173
31.1173
18.672
18.672
34.7163
34.7163
20.8316
20.8316
10.4158
10.4158
33.4726
33.4726
15.5587
15.5587
40.1706
40.1706
12.5
12.5
30.0026
30.0026
15.0013
15.0013
33.4726
33.4726
10.4158
10.4158
30.0026
30.0026
15.0013
15.0013
27.8914
27.8914
15.0013
15.0013
25.9289
25.9289
12.0522
12.0522
33.4726
33.4726
10.8028
10.8028
17.3581
17.3581
31.1173
31.1173
13.4461
13.4461
26.8923
26.8923
17.3581
17.3581
37.344
37.344
12.9644
12.9644
34.7163
34.7163
16.7363
16.7363
28.9278
28.9278
16.7363
16.7363
32.2735
32.2735
11.6204
11.6204
31.1173
31.1173
14.4639
14.4639
31.1173
31.1173
12.0522
12.0522
24.1044
24.1044
10.8028
10.8028
26.8923
26.8923
9.33599
9.33599
17.3581
17.3581
9.68287
9.68287
22.4083
22.4083
9.33599
9.33599
25.9289
25.9289
11.6204
11.6204
25.9289
25.9289
53.7845
53.7845
23.2409
23.2409
62.2346
62.2346
21.6055
21.6055
89.6332
89.6332
20.0853
20.0853
40.1706
40.1706
26.8923
26.8923
37.344
37.344
24.1044
24.1044
41.6631
41.6631
18.672
18.672
40.1706
40.1706
20.0853
20.0853
36.0062
36.0062
17.3581
17.3581
32.2735
32.2735
20.8316
20.8316
34.7163
34.7163
17.3581
17.3581
32.2735
32.2735
9.00154
9.00154
34.7163
34.7163
18.0031
18.0031
36.0062
36.0062
10.4158
10.4158
18.0031
18.0031
9.68287
9.68287
15.5587
15.5587
80.3411
80.3411
23.2409
23.2409
38.7315
38.7315
17.3581
17.3581
32.2735
32.2735
11.2042
11.2042
22.4083
22.4083
48.2088
48.2088
20.8316
20.8316
37.344
37.344
20.0853
20.0853
36.0062
36.0062
19.3657
19.3657
31.1173
31.1173
9.00154
9.00154
27.8914
27.8914
10.0426
10.0426
21.6055
21.6055
31.1173
31.1173
14.4639
14.4639
25.9289
25.9289
48.2088
48.2088
22.4083
22.4083
34.7163
34.7163
14.4639
14.4639
27.8914
27.8914
8.67907
8.67907
20.8316
20.8316
46.4818
46.4818
14.4639
14.4639
28.9278
28.9278
15.0013
15.0013
26.8923
26.8923
18.0031
18.0031
25
25
50
50
18.672
18.672
34.7163
34.7163
15.5587
15.5587
25
25
62.2346
62.2346
16.7363
16.7363
28.9278
28.9278
16.7363
16.7363
16.7363
16.7363
18.672
18.672
19.3657
19.3657
36.0062
36.0062
13.9457
13.9457
26.8923
26.8923
60.0051
60.0051
16.7363
16.7363
28.9278
28.9278
15.0013
15.0013
23.2409
23.2409
53.7845
53.7845
22.4083
22.4083
41.6631
41.6631
19.3657
19.3657
26.8923
26.8923
25
25
18.672
18.672
28.9278
28.9278
10.4158
10.4158
21.6055
21.6055
34.7163
34.7163
11.2042
11.2042
26.8923
26.8923
13.4461
13.4461
26.8923
26.8923
41.6631
41.6631
16.1367
16.1367
25
25
12.5
12.5
20.0853
20.0853
33.4726
33.4726
16.1367
16.1367
25
25
50
50
14.4639
14.4639
23.2409
23.2409
12.9644
12.9644
19.3657
19.3657
25
25
11.6204
11.6204
17.3581
17.3581
25.9289
25.9289
46.4818
46.4818
18.0031
18.0031
25
25
86.4222
86.4222
16.1367
16.1367
24.1044
24.1044
41.6631
41.6631
9.33599
9.33599
18.0031
18.0031
30.0026
30.0026
11.2042
11.2042
16.1367
16.1367
28.9278
28.9278
13.9457
13.9457
20.8316
20.8316
23.2409
23.2409
11.6204
11.6204
19.3657
19.3657
27.8914
27.8914
44.8166
44.8166
19.3657
19.3657
24.1044
24.1044
30.0026
30.0026
16.7363
16.7363
20.8316
20.8316
23.2409
23.2409
43.2111
43.2111
17.3581
17.3581
19.3657
19.3657
34.7163
34.7163
38.7315
38.7315
13.9457
13.9457
17.3581
17.3581
25
25
38.7315
38.7315
12.0522
12.0522
16.1367
16.1367
19.3657
19.3657
25
25
64.547
64.547
17.3581
17.3581
22.4083
22.4083
24.1044
24.1044
24.1044
24.1044
38.7315
38.7315
9.33599
9.33599
20.0853
20.0853
18.672
18.672
32.2735
32.2735
9.68287
9.68287
20.0853
20.0853
24.1044
24.1044
25.9289
25.9289
9.00154
9.00154
17.3581
17.3581
20.8316
20.8316
18.0031
18.0031
26.8923
26.8923
9.33599
9.33599
18.672
18.672
21.6055
21.6055
23.2409
23.2409
25.9289
25.9289
46.4818
46.4818
16.7363
16.7363
10.4158
10.4158
22.4083
22.4083
25
25
31.1173
31.1173
17.3581
17.3581
16.1367
16.1367
21.6055
21.6055
20.8316
20.8316
33.4726
33.4726
46.4818
46.4818
14.4639
14.4639
18.672
18.672
16.7363
16.7363
20.8316
20.8316
19.3657
19.3657
19.3657
19.3657
20.0853
20.0853
18.672
18.672
20.0853
20.0853
20.8316
20.8316
18.0031
18.0031
18.0031
18.0031
20.0853
20.0853
19.3657
19.3657
16.7363
16.7363
20.8316
20.8316
20.0853
20.0853
16.1367
16.1367
16.7363
16.7363
15.5587
15.5587
13.9457
13.9457
18.672
18.672
15.0013
15.0013
18.0031
18.0031
11.6204
11.6204
18.672
18.672
16.7363
16.7363
17.3581
17.3581
14.4639
14.4639
18.0031
18.0031
16.1367
16.1367
17.3581
17.3581
16.1367
16.1367
13.9457
13.9457
14.4639
14.4639
13.9457
13.9457
13.4461
13.4461
15.0013
15.0013
11.2042
11.2042
16.1367
16.1367
13.4461
13.4461
10.8028
10.8028
15.5587
15.5587
15.5587
15.5587
15.0013
15.0013
13.9457
13.9457
10.0426
10.0426
12.5
12.5
12.0522
12.0522
10.8028
10.8028
11.2042
11.2042
11.6204
11.6204
11.2042
11.2042
12.0522
12.0522
9.00154
9.00154
12.0522
12.0522
55.7829
55.7829
46.4818
46.4818
44.8166
44.8166
46.4818
46.4818
60.0051
60.0051
57.8555
57.8555
53.7845
53.7845
55.7829
55.7829
60.0051
60.0051
57.8555
57.8555
60.0051
60.0051
51.8578
51.8578
57.8555
57.8555
77.463
77.463
83.3262
83.3262
66.9452
66.9452
57.8555
57.8555
69.4326
69.4326
43.2111
43.2111
43.2111
43.2111
50
50
40.1706
40.1706
50
50
46.4818
46.4818
43.2111
43.2111
36.0062
36.0062
40.1706
40.1706
33.4726
33.4726
38.7315
38.7315
44.8166
44.8166
40.1706
40.1706
36.0062
36.0062
40.1706
40.1706
30.0026
30.0026
38.7315
38.7315
36.0062
36.0062
30.0026
30.0026
31.1173
31.1173
30.0026
30.0026
33.4726
33.4726
31.1173
31.1173
27.8914
27.8914
24.1044
24.1044
25.9289
25.9289
31.1173
31.1173
25
25
20.8316
20.8316
16.1367
16.1367
9.33599
9.33599
16.7363
16.7363
51.8578
51.8578
53.7845
53.7845
62.2346
62.2346
48.2088
48.2088
30.0026
30.0026
22.4083
22.4083
19.3657
19.3657
20.0853
20.0853
16.7363
16.7363
15.0013
15.0013
92.9635
92.9635
43.2111
43.2111
32.2735
32.2735
22.4083
22.4083
16.7363
16.7363
16.1367
16.1367
12.9644
12.9644
43.2111
43.2111
44.8166
44.8166
37.344
37.344
21.6055
21.6055
12.9644
12.9644
74.6879
74.6879
24.1044
24.1044
9.68287
9.68287
11.2042
11.2042
40.1706
40.1706
32.2735
32.2735
14.4639
14.4639
62.2346
62.2346
30.0026
30.0026
10.8028
10.8028
36.0062
36.0062
20.8316
20.8316
9.33599
9.33599
48.2088
48.2088
26.8923
26.8923
10.0426
10.0426
27.8914
27.8914
17.3581
17.3581
37.344
37.344
16.1367
16.1367
43.2111
43.2111
16.7363
16.7363
16.1367
16.1367
32.2735
32.2735
18.0031
18.0031
41.6631
41.6631
18.0031
18.0031
34.7163
34.7163
12.0522
12.0522
28.9278
28.9278
15.5587
15.5587
32.2735
32.2735
15.5587
15.5587
20.8316
20.8316
96.4176
96.4176
20.0853
20.0853
36.0062
36.0062
14.4639
14.4639
25.9289
25.9289
10.0426
10.0426
20.8316
20.8316
36.0062
36.0062
40.1706
40.1706
14.4639
14.4639
17.3581
17.3581
21.6055
21.6055
11.2042
11.2042
10.8028
10.8028
12.5
12.5
51.8578
51.8578
51.8578
51.8578
38.7315
38.7315
41.6631
41.6631
36.0062
36.0062
40.1706
40.1706
40.1706
40.1706
38.7315
38.7315
37.344
37.344
38.7315
38.7315
34.7163
34.7163
40.1706
40.1706
37.344
37.344
38.7315
38.7315
37.344
37.344
33.4726
33.4726
37.344
37.344
32.2735
32.2735
32.2735
32.2735
26.8923
26.8923
28.9278
28.9278
31.1173
31.1173
31.1173
31.1173
38.7315
38.7315
28.9278
28.9278
25.9289
25.9289
37.344
37.344
27.8914
27.8914
30.0026
30.0026
32.2735
32.2735
26.8923
26.8923
28.9278
28.9278
25
25
30.0026
30.0026
30.0026
30.0026
30.0026
30.0026
19.3657
19.3657
31.1173
31.1173
24.1044
24.1044
23.2409
23.2409
21.6055
21.6055
17.3581
17.3581
20.0853
20.0853
18.672
18.672
18.672
18.672
18.0031
18.0031
19.3657
19.3657
15.5587
15.5587
20.0853
20.0853
20.0853
20.0853
18.672
18.672
22.4083
22.4083
19.3657
19.3657
15.5587
15.5587
19.3657
19.3657
18.0031
18.0031
18.672
18.672
21.6055
21.6055
13.4461
13.4461
20.0853
20.0853
18.672
18.672
10.0426
10.0426
19.3657
19.3657
16.1367
16.1367
17.3581
17.3581
17.3581
17.3581
11.6204
11.6204
15.0013
15.0013
13.4461
13.4461
17.3581
17.3581
16.1367
16.1367
15.5587
15.5587
10.0426
10.0426
12.0522
12.0522
20.0853
20.0853
16.1367
16.1367
13.9457
13.9457
13.9457
13.9457
15.0013
15.0013
14.4639
14.4639
16.7363
16.7363
18.672
18.672
19.3657
19.3657
15.5587
15.5587
13.4461
13.4461
16.1367
16.1367
16.7363
16.7363
18.672
18.672
14.4639
14.4639
15.5587
15.5587
15.0013
15.0013
16.7363
16.7363
16.1367
16.1367
13.9457
13.9457
16.1367
16.1367
13.9457
13.9457
10.4158
10.4158
15.0013
15.0013
14.4639
14.4639
12.9644
12.9644
10.0426
10.0426
16.1367
16.1367
11.6204
11.6204
10.8028
10.8028
8.36815
8.36815
13.9457
13.9457
10.8028
10.8028
12.5
12.5
10.8028
10.8028
10.8028
10.8028
8.67907
8.67907
13.4461
13.4461
9.00154
9.00154
11.2042
11.2042
8.36815
8.36815
8.67907
8.67907
8.36815
8.36815
8.67907
8.67907
9.68287
9.68287
8.36815
8.36815
11.2042
11.2042
8.67907
8.67907
9.33599
9.33599
10.4158
10.4158
8.06837
8.06837
15.5587
15.5587
9.00154
9.00154
10.8028
10.8028
10.4158
10.4158
10.0426
10.0426
7.00259e-312
7.00259e-312
7.00259e-312
7.00259e-312
7.00259e-312
7.00259e-312
7.00259e-312
7.00259e-312
7.00259e-312
7.00259e-312
7.00259e-312
7.00259e-312
7.00259e-312
7.00259e-312
7.00259e-312
7.00259e-312
7.00259e-312
7.00259e-312
7.00259e-312
7.00259e-312
7.00259e-312
7.00259e-312
7.00259e-312
7.00259e-312
7.00259e-312
7.00259e-312
7.00259e-312
7.00259e-312
7.00259e-312
7.00259e-312
7.00259e-312
7.00259e-312
7.00259e-312
7.00259e-312
7.00259e-312
7.00259e-312
7.00259e-312
7.00259e-312
7.00259e-312
7.00259e-312
7.00259e-312
7.00259e-312
7.00259e-312
7.00259e-312
7.00259e-312
7.00259e-312
7.00259e-312
7.00259e-312
7.00259e-312
7.00259e-312
7.00259e-312
7.00259e-312
7.00259e-312
7.00259e-312
7.00259e-312
7.00259e-312
7.00259e-312
7.00259e-312
7.00259e-312
7.00259e-312
7.00259e-312
7.00259e-312
7.00259e-312
7.00259e-312
7.00259e-312
7.00259e-312
7.00259e-312
7.00259e-312
7.00259e-312
7.00259e-312
7.00259e-312
7.00259e-312
7.00259e-312
7.00259e-312
7.00259e-312
7.00259e-312
7.00259e-312
7.00259e-312
7.00259e-312
7.00259e-312
7.00259e-312
7.00259e-312
7.00259e-312
7.00259e-312
7.00259e-312
7.00259e-312
7.00259e-312
7.00259e-312
7.00259e-312
7.00259e-312
7.00259e-312
7.00259e-312
7.00259e-312
7.00259e-312
7.00259e-312
7.00259e-312
7.00259e-312
7.00259e-312
7.00259e-312
7.00259e-312
7.00259e-312
7.00259e-312
7.00259e-312
7.00259e-312
7.00259e-312
7.00259e-312
7.00259e-312
7.00259e-312
7.00259e-312
7.00259e-312
7.00259e-312
7.00259e-312
7.00259e-312
7.00259e-312
7.00259e-312
7.00259e-312
7.00259e-312
7.00259e-312
7.00259e-312
7.00259e-312
7.00259e-312
7.00259e-312
7.00259e-312
7.00259e-312
7.00259e-312
7.00259e-312
7.00259e-312
7.00259e-312
7.00259e-312
7.00259e-312
7.00259e-312
7.00259e-312
7.00259e-312
7.00259e-312
7.00259e-312
7.00259e-312
7.00259e-312
7.00259e-312
7.00259e-312
7.00259e-312
7.00259e-312
7.00259e-312
7.00259e-312
7.00259e-312
7.00259e-312
7.00259e-312
7.00259e-312
7.00259e-312
7.00259e-312
7.00259e-312
7.00259e-312
7.00259e-312
7.00259e-312
7.00259e-312
7.00259e-312
7.00259e-312
7.00259e-312
7.00259e-312
7.00259e-312
7.00259e-312
7.00259e-312
7.00259e-312
7.00259e-312
7.00259e-312
7.00259e-312
7.00259e-312
7.00259e-312
7.00259e-312
7.00259e-312
7.00259e-312
7.00259e-312
7.00259e-312
7.00259e-312
7.00259e-312
7.00259e-312
7.00259e-312
7.00259e-312
7.00259e-312
7.00259e-312
7.00259e-312
7.00259e-312
7.00259e-312
7.00259e-312
7.00259e-312
7.00259e-312
7.00259e-312
7.00259e-312
7.00259e-312
7.00259e-312
7.00259e-312
7.00259e-312
7.00259e-312
7.00259e-312
7.00259e-312
7.00259e-312
7.00259e-312
7.00259e-312
7.00259e-312
7.00259e-312
7.00259e-312
7.00259e-312
7.00259e-312
7.00259e-312
7.00259e-312
7.00259e-312
7.00259e-312
7.00259e-312
7.00259e-312
7.00259e-312
7.00259e-312
7.00259e-312
7.00259e-312
7.00259e-312
7.00259e-312
7.00259e-312
7.00259e-312
7.00259e-312
7.00259e-312
7.00259e-312
7.00259e-312
7.00259e-312
7.00259e-312
7.00259e-312
7.00259e-312
7.00259e-312
7.00259e-312
7.00259e-312
7.00259e-312
7.00259e-312
7.00259e-312
7.00259e-312
7.00259e-312
7.00259e-312
7.00259e-312
7.00259e-312
7.00259e-312
7.00259e-312
7.00259e-312
7.00259e-312
7.00259e-312
7.00259e-312
7.00259e-312
7.00259e-312
7.00259e-312
7.00259e-312
7.00259e-312
7.00259e-312
7.00259e-312
7.00259e-312
7.00259e-312
7.00259e-312
7.00259e-312
7.00259e-312
7.00259e-312
7.00259e-312
7.00259e-312
7.00259e-312
7.00259e-312
7.00259e-312
7.00259e-312
7.00259e-312
7.00259e-312
7.00259e-312
7.00259e-312
7.00259e-312
7.00259e-312
7.00259e-312
7.00259e-312
7.00259e-312
7.00259e-312
7.00259e-312
7.00259e-312
7.00259e-312
7.00259e-312
7.00259e-312
7.00259e-312
7.00259e-312
7.00259e-312
7.00259e-312
7.00259e-312
7.00259e-312
7.00259e-312
7.00259e-312
7.00259e-312
7.00259e-312
7.00259e-312
7.00259e-312
7.00259e-312
7.00259e-312
7.00259e-312
7.00259e-312
7.00259e-312
7.00259e-312
7.00259e-312
7.00259e-312
7.00259e-312
7.00259e-312
7.00259e-312
7.00259e-312
7.00259e-312
7.00259e-312
7.00259e-312
7.00259e-312
7.00259e-312
7.00259e-312
7.00259e-312
7.00259e-312
7.00259e-312
7.00259e-312
7.00259e-312
7.00259e-312
7.00259e-312
7.00259e-312
7.00259e-312
7.00259e-312
7.00259e-312
7.00259e-312
7.00259e-312
7.00259e-312
7.00259e-312
7.00259e-312
7.00259e-312
7.00259e-312
7.00259e-312
7.00259e-312
7.00259e-312
7.00259e-312
7.00259e-312
7.00259e-312
7.00259e-312
7.00259e-312
7.00259e-312
7.00259e-312
7.00259e-312
7.00259e-312
7.00259e-312
7.00259e-312
7.00259e-312
7.00259e-312
7.00259e-312
7.00259e-312
7.00259e-312
7.00259e-312
7.00259e-312
7.00259e-312
7.00259e-312
7.00259e-312
7.00259e-312
7.00259e-312
7.00259e-312
7.00259e-312
7.00259e-312
7.00259e-312
7.00259e-312
7.00259e-312
7.00259e-312
7.00259e-312
7.00259e-312
7.00259e-312
7.00259e-312
7.00259e-312
7.00259e-312
7.00259e-312
7.00259e-312
7.00259e-312
7.00259e-312
7.00259e-312
7.00259e-312
7.00259e-312
7.00259e-312
7.00259e-312
7.00259e-312
7.00259e-312
7.00259e-312
7.00259e-312
7.00259e-312
7.00259e-312
7.00259e-312
7.00259e-312
7.00259e-312
7.00259e-312
7.00259e-312
7.00259e-312
7.00259e-312
7.00259e-312
7.00259e-312
7.00259e-312
7.00259e-312
7.00259e-312
7.00259e-312
7.00259e-312
7.00259e-312
7.00259e-312
7.00259e-312
7.00259e-312
7.00259e-312
7.00259e-312
7.00259e-312
7.00259e-312
7.00259e-312
7.00259e-312
7.00259e-312
7.00259e-312
7.00259e-312
7.00259e-312
7.00259e-312
7.00259e-312
7.00259e-312
7.00259e-312
7.00259e-312
7.00259e-312
7.00259e-312
7.00259e-312
7.00259e-312
7.00259e-312
7.00259e-312
7.00259e-312
7.00259e-312
7.00259e-312
7.00259e-312
7.00259e-312
7.00259e-312
7.00259e-312
7.00259e-312
7.00259e-312
7.00259e-312
7.00259e-312
7.00259e-312
7.00259e-312
