# vtk DataFile Version 3.0
Tree
ASCII
DATASET POLYDATA
POINTS 400 float
0 2000 500
227.631 -834.275 500
346.172 1985.16 500
1730.86 1925.81 500
69.2344 1997.03 500
-1979.7 -50.9833 500
-1439.48 46.5452 500
-1653.62 -831.17 500
-1142.82 673.829 500
-1452.18 639.51 500
357.262 1962.29 500
401.622 1870.78 500
-422.185 1705.69 500
-1175.81 1863.53 500
-1359.47 -446.573 500
-825.288 -1541.33 500
977.407 576.205 500
1972.44 -104.636 500
-1375.47 -347.949 500
-1011.33 -559.343 500
1492.12 67.7419 500
1560.93 -604.428 500
-1379.84 -971.642 500
-1995.5 -1977.16 500
683.676 -331.962 500
737.78 -467.247 500
-1015.45 -1392.99 500
-1023.41 -1455.32 500
815.831 -223.059 500
1050.72 -695.613 500
-225.617 1822.23 500
-239.582 1520.3 500
539.929 1437.92 500
503.856 1344.41 500
945.092 416.352 500
706.216 385.362 500
1356.84 167.925 500
1330.44 60.1963 500
-979.504 -1524.4 500
-1025.89 -1901.7 500
458.205 1938.95 500
626.255 1869.62 500
-1121.34 1842.75 500
-1793.26 1969.41 500
-1593 1894.82 500
-1628.57 1846.26 500
-981.509 1815.34 500
-1046.88 1882.54 500
1036.15 -604.631 500
1447.67 -1185.81 500
1205.07 331.237 500
1633.94 488.382 500
-854.564 1086.57 500
-448.015 384.765 500
-1026.32 -529.394 500
-866.741 -590.167 500
1559.59 1854.12 500
1939.01 1740.02 500
-1571.08 -1214.69 500
-1720.37 -1181.38 500
1226.83 -813.688 500
1307.08 -836.685 500
-1320.82 297.459 500
-1422.13 257.007 500
1450.1 -1076.66 500
1901.52 -1384.31 500
-969.866 921.476 500
-1451.07 1216.71 500
-890.168 1745.04 500
-1084.13 1573.49 500
-1095.24 -429.034 500
-672.617 -390.485 500
1676.55 1765.06 500
1764.97 1522.9 500
124.622 1994.66 500
128.873 1974.11 500
1316.14 -918.878 500
1110.02 -1972.08 500
-877.625 1053.55 500
-862.826 954.137 500
877.535 1838.38 500
955.838 1729.94 500
-1052.55 -1659.2 500
-1298.35 -1821.08 500
1088.48 -1475.84 500
590.089 -1597.26 500
926.345 229.641 500
980.618 122.209 500
-499.903 458.527 500
-300.905 51.7656 500
-1204.69 666.965 500
-1231.14 652.908 500
-1312.05 1199 500
-1344.13 1320.05 500
793.669 1858.49 500
850.089 1765.24 500
798.745 -1600.18 500
636.584 -1854.69 500
-681.613 1334.22 500
-772.391 1310.82 500
964.481 512.264 500
845.419 444.965 500
-878.093 -1541.53 500
-472.449 -1610.04 500
1145.01 -1759.47 500
1175.51 -1783.14 500
974.822 563.417 500
991.237 515.64 500
889.911 748.548 500
1569.3 847.624 500
-291.238 164.159 500
-177.238 129.368 500
-488.937 595.528 500
-90.4118 515.484 500
613.603 -1727.26 500
35.1955 -1981.09 500
-918.657 -1534.68 500
-862.843 -1692.99 500
-1367.15 1835.33 500
-1407.08 1701.51 500
1235.42 298.575 500
1174.63 192.168 500
679.922 1162.17 500
922.706 1310.46 500
-702.975 1729.3 500
-782.819 1968.91 500
503.395 1542.79 500
629.216 1434.71 500
410.166 -463.064 500
-227.829 -485.158 500
-897.084 -580.612 500
-699.292 -663.937 500
904.242 139.101 500
964.52 21.3552 500
-230.271 599.677 500
7.34134 776.364 500
-627.836 784.428 500
-598.559 746.68 500
1534.41 -1284.62 500
1660.88 -1596.57 500
1273.47 1741.83 500
1493.09 1324.15 500
-1532.83 -1166.08 500
-1444 -1424.23 500
-763.383 -609.866 500
-624.162 -560.231 500
225.435 -1914.56 500
221.591 -1941.68 500
1090.78 -1560.05 500
1043.45 -1613.27 500
398.443 -619.588 500
534.089 -874.472 500
-1693.07 -73.0106 500
-1803.35 -203.58 500
337.524 -786.04 500
264.658 -1237.16 500
-1533.33 -677.718 500
-1551.18 -703.615 500
-1341.08 289.368 500
-1937.2 436.718 500
969.847 -480.746 500
999.084 -525.346 500
623.924 1272.47 500
405.707 1082.74 500
-1375.03 -357.604 500
-1373.28 -396.222 500
763.918 996.721 500
1120.9 1065.79 500
1285.36 1733.77 500
1332.95 1701.51 500
996.37 -530.3 500
802.48 -732.531 500
972.586 -1525.57 500
751.446 -1336.1 500
305.288 -1114.69 500
329.799 -1156.55 500
-216.943 1592.75 500
-154.318 1278.71 500
981.688 176.404 500
1148.79 70.8889 500
413.392 1957.43 500
455.229 1960.66 500
-629.727 1408.51 500
-654.595 1390.74 500
-1108.23 723.358 500
-1105.37 604.528 500
1342.93 -950.434 500
1876.84 -814.513 500
-750.565 -620.68 500
-423.045 -911.243 500
1508.74 824.611 500
1945.87 831.636 500
-343.558 1752.31 500
-574.468 1991.88 500
-1426.68 -32.3537 500
-1495.11 -152.204 500
-1441.04 -1049.42 500
-1662.36 -1020.57 500
1131.26 -1611.89 500
1238.97 -1619.83 500
1173.54 -1276.59 500
1154.36 -1329.41 500
747.118 1029.81 500
477.879 774.768 500
937.593 341.668 500
801.205 271.324 500
-1140.46 -1768.04 500
-1149.42 -1850.37 500
1640.31 -1487.23 500
1937.45 -1985.69 500
518.009 1500.84 500
320.194 1375.57 500
1497.84 1437.89 500
1608.83 1403.68 500
551.351 796.401 500
306.762 372.846 500
-1107.12 1023.12 500
-1141.9 1036.83 500
1678.05 -910.801 500
1723.5 -929.686 500
-783.042 -347.587 500
-737.368 -263.966 500
357.459 -1849.25 500
316.086 -1868.15 500
-431.527 233.229 500
-575.352 -79.2265 500
-1178.42 598.555 500
-1293.2 556.794 500
1626.74 -1569.27 500
1551.86 -1788.09 500
-716.776 -1641.36 500
-477.152 -1972.18 500
1504.01 1340.21 500
1538.17 1176.99 500
-115.362 545.791 500
64.5543 498.633 500
616.786 -1827.98 500
583.556 -1975.98 500
444.942 1710.59 500
520.973 1694.05 500
-1809.74 -1801.77 500
-1743.31 -1919.91 500
276.121 -962.701 500
94.9814 -1012.04 500
-44.361 -510.508 500
-88.1565 -559.58 500
-1088.33 -1308.72 500
-925.263 -1233.48 500
-785.384 1185.63 500
-659.109 1072.92 500
-826.892 1126.2 500
-829.933 1085.43 500
100.993 -574.211 500
-226.645 -923.911 500
-495.517 513.327 500
-350.07 447.923 500
-1399.28 702.158 500
-1930.17 870.387 500
-1788.85 -201.435 500
-1841.13 -323.424 500
908.663 157.209 500
673.302 115.539 500
1402.49 858.086 500
1596.34 1068.05 500
825.534 -696.582 500
666.226 -844.889 500
-1263.23 -1106.47 500
-1331.34 -1188.09 500
-1142.32 -1828.32 500
-1140.81 -1987.08 500
-1219.66 1839.78 500
-1321.57 1627.22 500
792.806 -800.875 500
821.2 -1069.74 500
1283.99 246.315 500
1399.42 266.911 500
408.491 -1808.56 500
356.474 -1767.79 500
990.505 1822.2 500
1046.45 1854.02 500
1050.17 510.203 500
1113.56 491.165 500
1587.55 458.524 500
1830.84 496.238 500
820.924 -703.772 500
613.22 -747.082 500
1012.28 -560.032 500
1360.75 -422.468 500
167.585 -1913.53 500
126.426 -1842.88 500
-908.436 1759.1 500
-952.466 1772.33 500
724.688 -1651.01 500
739.572 -1794.47 500
-109.17 -847.627 500
-96.7775 -908.052 500
-505.202 1586.82 500
-394.872 1363.59 500
1599.24 -930.499 500
1619.13 -969.659 500
464.868 -436.844 500
183.138 -155.001 500
794.384 -1029.97 500
715.514 -1139.74 500
1150.56 -730.065 500
1144.01 -770.169 500
1573.14 1404.18 500
1763.35 1303.58 500
359.757 1400.62 500
124.131 1285.32 500
1777.41 11.8444 500
1957.93 133.01 500
-397.914 199.678 500
-403.751 134.545 500
1026.34 780.006 500
1059.49 796.302 500
-993.881 -1471.83 500
-1108.09 -1548.36 500
-558.394 -1656.35 500
-169.193 -1747.62 500
-1714.39 291.309 500
-1764.56 243.487 500
729.964 388.641 500
586.081 370.768 500
1551.51 -202.27 500
1606.19 -271.204 500
-1367.62 -656.6 500
-1428.44 -682.766 500
-740.576 -1620.2 500
-674.457 -1635.41 500
721.432 -1102.86 500
587.362 -1174.88 500
-223.882 1776.33 500
-149.12 1775.45 500
1202.06 -1205.05 500
961.754 -1191.15 500
552.391 -394.891 500
559.915 -583.805 500
987.134 -1209.66 500
848.349 -1269.78 500
-161.463 1411.75 500
-145.351 1395.77 500
-1713.35 760.241 500
-1745.76 742.887 500
-1694.06 -1373.21 500
-1947.35 -1420.22 500
1753.27 -1277.85 500
1897.99 -1217.85 500
-1855.31 802.086 500
-1989.51 749.175 500
1600.38 -234.08 500
1741.18 -292.386 500
-1069.15 1599.74 500
-1203.2 1533.2 500
-1025.21 842.229 500
-967.553 734.296 500
1502.36 1831.66 500
1537.27 1869.11 500
174.61 -1054.21 500
-50.2925 -1370.91 500
868.878 -5.76286 500
667.521 -10.9659 500
312.963 -856.704 500
435.531 -964.376 500
-1256.25 1182.32 500
-1237.99 1291.5 500
-671.236 1349.08 500
-622.996 1259.63 500
-646.817 1724.58 500
-671.272 1850.55 500
1383.9 147.889 500
1475.7 189.588 500
1747.18 1676.51 500
1808.92 1664.78 500
-1457.49 1859.12 500
-1953.28 1545.38 500
1474.49 -924.254 500
1488.11 -859.403 500
433.476 539.029 500
436.423 508.632 500
-1485.33 721.972 500
-1515.43 743.143 500
1184.95 -1247.97 500
1351.94 -1381.16 500
-60.9553 -1302.95 500
-189.401 -1359.35 500
-475.569 29.5502 500
-364.088 -160.254 500
-1459.39 -1072.75 500
-1493.32 -1089.79 500
693.361 1135.7 500
557.833 1038.94 500
224.47 -179.186 500
108.069 5.91905 500
442.737 649.788 500
244.029 578.079 500
1103.69 1790.05 500
1113.85 1745.4 500
-52.3723 -765.964 500
-72.2567 -780.177 500
LINES 399 1197
2 154 1
2 74 2
2 56 3
2 0 4
2 152 5
2 62 6
2 156 7
2 184 8
2 256 9
2 2 10
2 10 11
2 192 12
2 42 13
2 164 14
2 102 15
2 108 16
2 310 17
2 194 18
2 54 19
2 370 20
2 324 21
2 326 22
2 240 23
2 28 24
2 24 25
2 246 26
2 26 27
2 360 28
2 48 29
2 4 30
2 176 31
2 210 32
2 32 33
2 100 34
2 322 35
2 274 36
2 36 37
2 316 38
2 82 39
2 180 40
2 40 41
2 46 42
2 44 43
2 374 44
2 44 45
2 290 46
2 46 47
2 286 48
2 64 49
2 280 50
2 282 51
2 250 52
2 88 53
2 70 54
2 130 55
2 356 56
2 72 57
2 142 58
2 58 59
2 304 60
2 60 61
2 226 62
2 158 63
2 186 64
2 346 65
2 78 66
2 92 67
2 124 68
2 352 69
2 18 70
2 220 71
2 56 72
2 372 73
2 4 74
2 74 75
2 60 76
2 104 77
2 52 78
2 78 79
2 94 80
2 80 81
2 38 82
2 206 83
2 200 84
2 96 85
2 204 86
2 178 87
2 254 88
2 110 89
2 8 90
2 90 91
2 364 92
2 92 93
2 40 94
2 94 95
2 172 96
2 236 97
2 366 98
2 98 99
2 106 100
2 100 101
2 116 102
2 318 103
2 198 104
2 104 105
2 16 106
2 106 107
2 166 108
2 190 109
2 312 110
2 110 111
2 136 112
2 234 113
2 292 114
2 288 115
2 38 116
2 116 117
2 270 118
2 118 119
2 50 120
2 120 121
2 162 122
2 122 123
2 368 124
2 124 125
2 238 126
2 126 127
2 300 128
2 244 129
2 54 130
2 188 131
2 260 132
2 132 133
2 112 134
2 134 135
2 52 136
2 136 137
2 64 138
2 228 139
2 396 140
2 232 141
2 388 142
2 142 143
2 130 144
2 144 145
2 222 146
2 146 147
2 84 148
2 148 149
2 128 150
2 150 151
2 6 152
2 258 153
2 150 154
2 174 155
2 14 156
2 156 157
2 62 158
2 320 159
2 28 160
2 160 161
2 32 162
2 162 163
2 18 164
2 164 165
2 202 166
2 166 167
2 140 168
2 168 169
2 160 170
2 264 171
2 84 172
2 172 173
2 242 174
2 174 175
2 332 176
2 340 177
2 86 178
2 178 179
2 2 180
2 180 181
2 296 182
2 182 183
2 354 184
2 184 185
2 76 186
2 218 187
2 144 188
2 188 189
2 262 190
2 190 191
2 30 192
2 192 193
2 6 194
2 194 195
2 22 196
2 196 197
2 148 198
2 198 199
2 382 200
2 200 201
2 390 202
2 214 203
2 34 204
2 204 205
2 82 206
2 268 207
2 138 208
2 208 209
2 126 210
2 308 211
2 168 212
2 306 213
2 202 214
2 378 215
2 66 216
2 216 217
2 298 218
2 218 219
2 70 220
2 220 221
2 276 222
2 222 223
2 88 224
2 386 225
2 8 226
2 226 227
2 208 228
2 228 229
2 328 230
2 230 231
2 212 232
2 232 233
2 134 234
2 234 235
2 114 236
2 236 237
2 10 238
2 238 239
2 344 240
2 240 241
2 362 242
2 358 243
2 252 244
2 244 245
2 266 246
2 246 247
2 98 248
2 248 249
2 248 250
2 250 251
2 128 252
2 294 253
2 112 254
2 254 255
2 90 256
2 348 257
2 152 258
2 258 259
2 86 260
2 260 261
2 314 262
2 262 263
2 170 264
2 272 265
2 22 266
2 266 267
2 206 268
2 268 269
2 42 270
2 270 271
2 284 272
2 302 273
2 120 274
2 274 275
2 114 276
2 276 277
2 80 278
2 278 279
2 16 280
2 280 281
2 50 282
2 282 283
2 264 284
2 284 285
2 170 286
2 286 287
2 146 288
2 288 289
2 68 290
2 290 291
2 96 292
2 292 293
2 398 294
2 294 295
2 12 296
2 296 297
2 376 298
2 298 299
2 336 300
2 392 301
2 272 302
2 330 303
2 48 304
2 304 305
2 212 306
2 306 307
2 210 308
2 308 309
2 20 310
2 310 311
2 224 312
2 312 313
2 108 314
2 314 315
2 26 316
2 316 317
2 230 318
2 318 319
2 158 320
2 320 321
2 34 322
2 322 323
2 20 324
2 350 325
2 14 326
2 326 327
2 102 328
2 328 329
2 302 330
2 330 331
2 30 332
2 332 333
2 76 334
2 338 335
2 24 336
2 336 337
2 334 338
2 338 339
2 176 340
2 340 341
2 380 342
2 342 343
2 58 344
2 344 345
2 138 346
2 346 347
2 342 348
2 348 349
2 324 350
2 350 351
2 68 352
2 352 353
2 66 354
2 354 355
2 140 356
2 356 357
2 242 358
2 384 359
2 132 360
2 360 361
2 154 362
2 362 363
2 216 364
2 364 365
2 182 366
2 366 367
2 12 368
2 368 369
2 36 370
2 370 371
2 72 372
2 372 373
2 118 374
2 374 375
2 186 376
2 376 377
2 394 378
2 378 379
2 256 380
2 380 381
2 334 382
2 382 383
2 358 384
2 384 385
2 224 386
2 386 387
2 196 388
2 388 389
2 122 390
2 390 391
2 300 392
2 392 393
2 214 394
2 394 395
2 278 396
2 396 397
2 252 398
2 398 399
CELL_DATA 399
SCALARS radius float
LOOKUP_TABLE default
4.34451
23.8084
4.79434
28.7499
5.25805
18.463
5.79597
19.2276
3.47421
22.9726
2.87492
21.547
3.12898
16.8343
4.22759
22.1743
5.67262
18.0475
3.22576
9.50231
6.41541
16.4935
7.67035
13.7545
3.86447
14.2589
4.04929
20.8297
3.53172
21.7302
3.17975
22.8481
2.96321
21.1808
3.0114
9.87364
3.76391
13.9313
6.45522
11.0772
3.3923
9.03311
5.79296
6.45983
4.2202
9.18533
3.35881
17.7048
4.13707
10.9571
3.96571
20.6377
3.66264
9.09592
3.456
8.46931
5.76024
10.1807
4.86184
17.6305
3.58413
18.7325
3.28135
10.8012
6.00842
19.5669
4.81164
9.81108
3.25577
10.2731
5.63921
7.92267
5.87614
23.8125
1.91061
17.581
7.01185
19.5929
3.10499
10.8786
3.43636
10.2151
6.67914
14.8189
5.7261
21.0466
3.10864
9.20853
5.23431
7.91157
2.45427
5.9794
4.67819
10.9701
3.20012
13.4156
4.67354
20.703
2.97039
21.2113
3.45123
11.3638
5.97384
7.60415
4.56211
21.2255
2.67898
22.4486
3.7299
6.64081
5.30682
10.7632
3.84281
12.7428
8.98773
11.7877
5.54434
8.47906
4.28077
10.2014
3.65383
22.7932
3.92579
10.0175
3.93343
22.9447
3.33729
12.9714
5.94354
8.95863
4.6323
20.9119
3.53624
7.3401
5.38868
10.825
2.78573
10.595
4.33173
10.6256
3.46618
10.6917
5.50713
8.78379
5.56579
11.0472
5.4108
8.61003
4.24016
11.0762
5.0866
7.12423
3.26365
10.7064
5.97242
6.25109
3.67325
6.53888
5.6356
18.6005
3.02508
22.8315
3.90896
16.8617
2.859
22.4985
4.22857
8.21325
3.12376
18.5738
3.20856
13.7787
5.8617
6.80634
4.67656
5.60668
4.84733
4.78127
4.29557
11.1115
2.3311
20.7331
2.22933
19.2616
3.35226
12.031
6.50317
7.96493
7.40409
6.45648
6.0116
21.5902
3.92079
18.1025
3.77716
11.1383
5.00608
8.25262
4.96448
14.8878
3.57366
22.7281
3.28301
21.0818
3.60427
9.27131
4.56781
9.20115
7.45406
22.9211
2.91311
8.05978
3.83326
7.06193
5.51889
6.75484
2.70717
7.14147
4.46795
6.92184
5.34039
11.4211
5.21225
9.01119
5.4329
18.7704
3.4188
7.14533
6.56951
10.8553
7.67611
6.30413
5.93347
6.20571
5.66953
7.49318
6.83024
22.9576
2.73164
9.01153
6.54624
10.107
4.71856
6.74268
4.58818
14.4728
5.09704
20.6826
3.4916
20.6493
2.46186
9.37389
6.70646
9.47792
4.13215
7.83205
5.41978
6.00202
5.66139
20.964
4.09313
7.32474
4.98448
9.02172
4.5439
14.5888
4.18876
7.93157
7.3905
8.90619
4.59222
8.38681
4.30729
10.0427
3.69141
11.8129
5.41326
10.763
2.94371
11.0261
2.92416
6.33183
5.76387
8.88436
4.81084
17.8353
4.98183
10.5963
7.74042
9.26505
2.73033
13.0585
5.40182
7.7456
5.46321
20.7725
3.70692
7.51532
3.92022
13.5145
4.10764
7.91631
4.75637
17.6579
2.94546
6.48736
6.00648
4.85922
4.48165
7.10828
5.61073
7.08047
3.96008
7.42723
2.55752
14.1492
5.05052
9.38591
8.49789
6.25095
4.02619
5.09971
4.72247
7.93083
3.93348
16.5419
3.40969
11.1653
4.83121
7.46614
6.75757
5.81989
2.75372
15.4566
3.99542
13.652
4.23774
6.47212
5.91859
5.24263
3.1141
7.4386
3.55486
9.79676
5.92928
7.43106
5.78336
7.15749
5.92001
6.16919
5.58204
5.30225
4.85667
19.2948
3.33369
8.64282
3.36512
8.95092
6.09262
20.8781
3.98196
10.4624
4.83144
6.60667
4.20938
20.7245
3.02681
10.1327
3.27415
9.68784
3.71436
6.7399
4.69166
8.09854
6.39547
7.83667
3.84422
5.92332
3.41223
7.5972
2.99602
15.0687
4.95637
8.49056
7.28059
7.2225
6.00368
10.7905
3.24533
22.7543
3.44086
6.58697
6.00453
6.81703
4.7765
10.6891
2.7879
8.02666
3.74307
