# vtk DataFile Version 3.0
Tree
ASCII
DATASET POLYDATA
POINTS 260 float
0 0 0.0287941
-0.00108484 0.0168428 -0.0217501
-0.00516154 -0.0023137 0.00850434
-0.0175042 -0.0226999 -0.000345742
-0.000626025 -0.00208579 -0.00652192
0.00754241 -0.0179196 -0.0192285
0.000132259 -0.00332675 0.0171996
0.016798 -0.0166561 0.00829498
-0.00145588 -0.00302283 0.014591
0.0107807 0.0170371 0.00657717
-0.00585941 0.000828843 0.00371671
-0.0188934 0.0196935 0.00328622
0.00494428 0.00445525 -0.013816
0.0196612 0.00505056 -0.0195193
0.0159643 -0.0103709 0.00878577
0.0281053 -0.00563406 0.00241525
-0.0091278 0.0132637 0.000969202
-0.00263625 0.0236794 -0.00560383
0.000559703 0.00635698 -0.0191597
-0.00554711 0.000629229 -0.0261002
-0.00913494 0.0059607 0.00422764
-0.0210851 0.00639785 0.014235
3.96776e-05 -0.000998024 0.0253158
-0.00206899 0.0148846 0.0228431
0.00477074 -0.0149887 -0.0106683
0.00697893 -0.0255478 -0.00317811
0.0109828 0.00774072 0.0135627
0.0197109 0.00875377 0.0176761
-0.0145547 -0.0114988 -0.00145922
-0.0190039 -0.0101069 -0.00910764
0.00173241 -0.0125661 -0.0096041
-0.00652356 -0.0225688 -0.0110635
-0.0100445 0.0092381 0.000232867
-0.0156536 0.00694006 -0.0142984
0.00434916 -0.00776834 0.0142806
-0.000280186 -0.0214673 0.012576
-0.0167622 -0.0112377 -0.00795856
-0.014115 -0.0147041 -0.020021
0.0222557 -0.00447896 0.00428635
0.0210894 0.00390482 0.00181717
-0.0133514 -0.0085286 0.00219684
-0.024075 -0.00799701 0.00544004
0.00339695 0.00317363 -0.00995779
0.00781771 0.0116534 -0.00449273
0.0134428 0.00696747 -0.0143616
0.0184767 0.0127471 -0.00924654
0.00191045 -0.00612548 -0.00807339
0.0115956 -0.00473992 -0.00989839
-0.00125907 -0.0151192 -0.0117998
-0.00371306 -0.0115116 -0.0224728
0.00863833 -0.0094716 0.0106673
0.00594834 -0.0134281 0.00220866
-0.0140546 -0.0181894 0.00116844
-0.00939761 -0.0225926 0.00665273
0.00487341 -0.00563085 -0.0104252
0.00439595 -0.00526458 -0.0213522
0.0125166 0.015337 0.00587348
0.0168073 0.0189338 -0.00192364
-0.0124461 0.0117978 -0.00871362
-0.0122111 0.0210063 -0.0151117
0.000104484 -0.00262813 0.0196345
-0.00509153 -0.0127256 0.0216993
0.0108848 0.0169564 0.00614177
0.00420864 0.0236252 0.00643274
-0.00514096 0.00784337 0.0230569
-0.0108392 0.00908633 0.0216449
0.00520149 0.0107836 -0.00812538
0.00352637 0.0182382 -0.0112207
-0.00971078 -0.0206703 0.0022504
-0.00386328 -0.0220175 -0.00123516
0.00951517 0.00526446 -0.0155838
0.011491 0.00251923 -0.0247678
-0.0149023 -0.0100045 -0.0127501
-0.0123887 -0.00386227 -0.014732
0.00649426 0.00605711 0.0140702
0.00291076 0.0164732 0.0152042
-0.0114799 -0.00554914 0.00336335
-0.0157781 0.000767339 -0.00163538
-0.00999514 -0.0216157 0.00626366
-0.0128828 -0.0204203 0.0148795
0.0187076 0.00594116 -0.0153245
0.0251391 0.00549285 -0.0119062
0.00270529 -0.0195997 0.0118987
0.00641421 -0.0265392 0.00869595
0.00956111 -0.00729135 -0.0104332
0.0139327 -0.0125794 -0.0110559
0.0122688 -0.010178 -0.0132608
0.0142354 -0.0115575 -0.01982
0.0043452 -0.0144057 0.0154922
0.00621373 -0.0179515 0.0213299
0.00072491 0.00563481 -0.0171609
-0.00671622 0.00486626 -0.0151885
-0.0216154 -0.00760986 0.00671832
-0.0244825 -0.00615868 0.0127852
-0.00524889 0.0155042 -0.00149207
-0.000838729 0.0123379 -0.00218704
0.00738223 -0.00869145 0.0131858
0.0128401 -0.00913055 0.0175583
0.0110271 0.0111122 0.00878165
0.00658823 0.00849082 0.0030291
0.00159563 -0.0113372 -0.00807418
0.000412016 -0.0162091 -0.00162816
-0.0125791 0.00923068 0.00928203
-0.0111925 0.0172645 0.0137013
-0.0231734 -0.00685908 0.00568671
-0.0265945 -0.00127929 0.00254539
-0.00345694 -0.0026399 0.0113042
-0.00510379 0.00432354 0.012696
1.19033e-05 -0.000299407 0.0277506
0.0069533 0.00204895 0.026731
-0.00396832 -0.00254204 0.0104643
-0.0117453 -0.00535561 0.0148144
-0.00959786 0.00767465 0.0221213
-0.0162181 0.0021103 0.021518
-0.00285509 -0.00207029 -0.00377739
-0.00645497 -0.00759614 -0.00666404
0.0154557 0.00646624 0.0134967
0.0194761 0.00232068 0.00980112
-0.0163331 0.000621594 -0.000501339
-0.0214444 0.00566095 -0.00186986
-0.0206703 0.00410455 -0.00257824
-0.0257723 0.00426253 -0.00956902
-0.017401 0.00964577 0.00958356
-0.0225093 0.0131413 0.00611352
-0.0125058 0.0168698 -6.73234e-05
-0.0128214 0.0206315 -0.00471869
-0.018746 -0.00995747 -0.00826057
-0.0240472 -0.00556638 -0.00658642
0.0116896 0.00247842 -0.0193715
0.0150229 -0.00154828 -0.0186154
0.0204459 -0.00646065 0.0045408
0.0214617 -0.00727089 -0.00257363
0.0168175 0.00538296 -0.0143744
0.0183689 -0.000611742 -0.0109449
-0.000192988 -0.00728395 0.0205638
0.00349581 -0.0106011 0.0211835
0.00226799 -0.0230882 0.0100107
-0.00203558 -0.0261104 0.00790107
0.00551001 -0.000543846 0.0270503
0.00973172 -0.0045272 0.0267061
0.00503197 0.0164909 -0.0122999
0.00698908 0.0205174 -0.0186125
-0.00286519 0.00321097 -0.0165206
-0.00359272 -0.00214342 -0.0171282
-0.00432628 -0.00247354 0.00987628
0.00209019 -0.00032139 0.00626524
0.012171 -0.00844736 0.0161553
0.0185868 -0.00509743 0.0159693
0.0116777 -0.00875336 0.00888875
0.0120332 -0.00209314 0.00266711
0.0200087 0.00198582 0.00104975
0.0162299 0.00423736 -0.00304006
0.0155571 0.0148129 0.0030787
0.0196978 0.0103822 0.00257535
0.00112764 -0.0197993 0.0116951
-0.0028059 -0.0174235 0.00913801
0.0104504 -0.00947596 0.0152432
0.0118526 -0.0151843 0.0170642
0.0193264 0.0129871 0.00130979
0.0242866 0.0133557 -0.00266357
-0.0232484 -0.00610196 0.0119133
-0.0211965 -0.0029548 0.0182577
-0.015075 -0.00616267 -0.0150057
-0.0183917 -0.00330337 -0.0185409
-0.0186216 0.00199344 -0.00239149
-0.0193581 -0.000277118 -0.00762337
0.011623 0.00936635 0.010078
0.0153942 0.00707074 0.00608886
0.00342674 -0.00530558 -0.0200805
0.000525231 -0.00509707 -0.0261763
0.0137321 -0.0126275 -0.0113851
0.0166597 -0.0189263 -0.00789527
-0.0233928 0.00294596 -0.00436009
-0.0260203 -0.000168662 -0.0029499
-0.00479736 -0.00287145 -0.00523156
-0.0097858 0.00286411 -0.00859724
0.0132507 0.00837597 0.0137174
0.016 0.0154644 0.0148323
-0.00343445 -0.020511 -0.00993907
-0.00150759 -0.0237335 -0.00620623
-0.0173319 -0.00902983 0.00585947
-0.0164009 -0.0149307 0.0144711
0.00378106 0.00890975 -0.00870765
-0.00146426 0.0120753 -0.00875048
0.00174615 0.00986201 -0.0213049
0.00620662 0.00988712 -0.0246007
-0.00013011 -0.0129236 -0.00435988
-0.00321502 -0.0114351 -0.0021757
0.00304389 0.00107041 0.0138342
0.00626703 -0.00167376 0.0107846
-0.00155583 -0.0122379 -0.00245768
-0.000838715 -0.0125973 0.00251871
0.00778211 0.00762069 0.00388059
0.00704734 0.00313636 0.00113937
-0.00972483 -0.0028466 0.0128012
-0.0134173 0.000389638 0.012596
0.00627638 0.0186193 -0.0136081
0.0101462 0.023928 -0.00946998
0.012128 -0.00559978 0.00825226
0.0129812 -0.00319933 0.0119484
-0.021381 0.00470916 -0.00157419
-0.0238115 0.00453219 0.00282257
-0.00228173 -0.00901174 0.0224406
-0.00345403 -0.00879035 0.0262933
-0.0185523 0.00983511 0.0121486
-0.018355 0.0131059 0.0147573
0.00805116 -0.00179393 0.0262321
0.0131068 0.000485347 0.0220663
0.00679418 -0.00655933 -0.00972885
0.00687396 -0.00811161 -0.00543137
-0.0250417 0.0025233 -0.00859776
-0.0258825 -0.000444362 -0.0120533
0.00448016 0.00614324 -0.00919059
0.00995435 0.00676704 -0.00831755
0.00570552 -0.0248236 0.00890959
0.0117177 -0.0229126 0.00693511
0.0144694 -0.0102016 -0.0150069
0.0241944 -0.00768611 -0.0130833
-0.0252484 0.000522013 -0.0117928
-0.022975 0.000734973 -0.0168568
0.00656908 0.0227959 0.00488713
0.00691634 0.0263796 0.00116209
0.00580603 -0.0105769 0.00656263
0.00159725 -0.0088973 0.00567473
0.00443056 -0.0181856 0.0134149
0.0109289 -0.0224842 0.013745
-0.0113951 0.0161085 0.0110757
-0.0107274 0.0200221 0.0081121
-0.0158288 0.00123657 -0.00127729
-0.0138017 0.00473318 -0.00385678
-0.00449758 -0.0107441 -0.0215225
-0.00680795 -0.00788038 -0.0255466
0.0221932 -0.0069431 -0.0130596
0.0253829 -0.00287634 -0.01135
-0.00203755 0.0150286 -0.00170734
0.00118001 0.0174242 -0.00146665
-0.0039489 0.0132384 0.021207
-0.00527212 0.0170526 0.0167555
0.0095097 0.0189672 0.00667668
0.00938578 0.0200575 0.0123822
-0.0187811 -0.00783033 0.00664912
-0.0169747 -0.00401189 0.00935272
-0.00586143 0.00388635 -0.0230102
-0.0136489 0.00571582 -0.0229964
-0.0200556 0.00347121 -0.00252222
-0.0180812 0.00728542 -0.00690019
0.00556857 0.0196923 -0.0154093
-0.000153916 0.0226233 -0.0168225
0.0146161 -0.0174687 -0.0100073
0.0127071 -0.0209192 -0.0114499
-0.00780292 -0.00444174 0.00688591
-0.00823272 -0.00942538 0.00979658
0.00461657 -0.0198062 -0.00960683
0.00329958 -0.0211795 -0.0118861
-0.00940781 0.00694392 0.00302921
-0.00200792 0.0111502 0.00460005
-0.00640669 -0.0104981 -0.0229678
-0.00933553 -0.01232 -0.0232352
0.00333379 0.0141468 0.0130349
0.00212623 0.0161421 0.0106062
LINES 259 777
2 184 1
2 144 2
2 52 3
2 114 4
2 24 5
2 60 6
2 14 7
2 6 8
2 62 9
2 2 10
2 124 11
2 42 12
2 80 13
2 148 14
2 38 15
2 32 16
2 94 17
2 90 18
2 242 19
2 10 20
2 204 21
2 108 22
2 236 23
2 30 24
2 252 25
2 74 26
2 116 27
2 40 28
2 126 29
2 100 30
2 178 31
2 254 32
2 58 33
2 6 34
2 154 35
2 28 36
2 72 37
2 130 38
2 150 39
2 76 40
2 104 41
2 4 42
2 66 43
2 70 44
2 44 45
2 4 46
2 84 47
2 30 48
2 230 49
2 96 50
2 222 51
2 28 52
2 78 53
2 46 54
2 168 55
2 98 56
2 152 57
2 32 58
2 58 59
2 22 60
2 202 61
2 56 62
2 220 63
2 22 64
2 112 65
2 182 66
2 140 67
2 52 68
2 68 69
2 12 70
2 128 71
2 36 72
2 162 73
2 188 74
2 258 75
2 250 76
2 228 77
2 68 78
2 78 79
2 132 80
2 80 81
2 224 82
2 214 83
2 208 84
2 170 85
2 84 86
2 216 87
2 34 88
2 88 89
2 12 90
2 142 91
2 240 92
2 160 93
2 16 94
2 234 95
2 34 96
2 146 97
2 166 98
2 192 99
2 46 100
2 186 101
2 20 102
2 226 103
2 92 104
2 104 105
2 8 106
2 106 107
2 0 108
2 138 109
2 106 110
2 194 111
2 64 112
2 112 113
2 10 114
2 174 115
2 176 116
2 116 117
2 76 118
2 200 119
2 244 120
2 210 121
2 102 122
2 122 123
2 16 124
2 124 125
2 36 126
2 126 127
2 70 128
2 128 129
2 14 130
2 130 131
2 44 132
2 132 133
2 60 134
2 134 135
2 82 136
2 136 137
2 108 138
2 206 139
2 66 140
2 246 141
2 90 142
2 142 143
2 110 144
2 144 145
2 156 146
2 146 147
2 50 148
2 198 149
2 38 150
2 150 151
2 56 152
2 158 153
2 82 154
2 154 155
2 96 156
2 156 157
2 152 158
2 158 159
2 92 160
2 160 161
2 72 162
2 162 163
2 118 164
2 164 165
2 26 166
2 166 167
2 54 168
2 168 169
2 86 170
2 248 171
2 120 172
2 172 173
2 114 174
2 174 175
2 26 176
2 176 177
2 48 178
2 178 179
2 40 180
2 180 181
2 212 182
2 182 183
2 18 184
2 184 185
2 100 186
2 190 187
2 8 188
2 188 189
2 186 190
2 190 191
2 98 192
2 192 193
2 110 194
2 194 195
2 140 196
2 196 197
2 148 198
2 198 199
2 120 200
2 200 201
2 134 202
2 202 203
2 122 204
2 204 205
2 138 206
2 206 207
2 54 208
2 208 209
2 172 210
2 218 211
2 42 212
2 212 213
2 136 214
2 214 215
2 86 216
2 232 217
2 210 218
2 218 219
2 238 220
2 220 221
2 50 222
2 222 223
2 88 224
2 224 225
2 102 226
2 226 227
2 118 228
2 228 229
2 48 230
2 256 231
2 216 232
2 232 233
2 94 234
2 234 235
2 64 236
2 236 237
2 62 238
2 238 239
2 180 240
2 240 241
2 18 242
2 242 243
2 164 244
2 244 245
2 196 246
2 246 247
2 170 248
2 248 249
2 2 250
2 250 251
2 24 252
2 252 253
2 20 254
2 254 255
2 230 256
2 256 257
2 74 258
2 258 259
CELL_DATA 259
SCALARS radius float
LOOKUP_TABLE default
0.274961
1.08134
0.227214
0.878323
0.26011
1.20806
0.217617
1.14917
0.127892
0.964445
0.258949
0.6074
0.255869
0.441709
0.250518
0.428622
0.268617
0.433539
0.259154
0.584443
0.24741
1.22377
0.204257
0.376514
0.291962
0.5772
0.2334
0.531272
0.156947
0.528742
0.247027
0.489312
0.256337
0.626135
0.191081
0.432916
0.273224
0.39301
0.245691
0.615042
0.178846
0.694311
0.214612
0.431065
0.267554
0.699917
0.193905
0.455398
0.211004
0.504543
0.221777
0.409793
0.191999
0.541284
0.199743
0.490536
0.257024
0.3374
0.278348
1.21367
0.211
0.3941
0.256235
0.355718
0.175683
0.448216
0.209134
0.385044
0.260522
0.482625
0.253512
0.389455
0.252105
0.598994
0.223094
0.711863
0.130135
0.340289
0.318556
0.345555
0.290481
0.407064
0.211158
0.49157
0.133942
0.4813
0.241858
0.445965
0.210348
0.481561
0.240415
0.387942
0.198997
0.361045
0.230853
0.539214
0.167837
0.525496
0.200826
0.56907
0.221772
0.416113
0.223737
0.291018
0.266494
1.09045
0.193132
1.22893
0.167775
1.08843
0.19893
0.280596
0.255454
0.886825
0.201731
0.296712
0.237563
0.504074
0.163831
0.450584
0.22198
0.353059
0.247107
0.316423
0.242823
0.280477
0.263034
0.318525
0.252112
0.423349
0.247557
0.393534
0.270006
0.291039
0.19041
0.362728
0.241144
0.285527
0.188543
0.431176
0.260991
0.311371
0.253509
1.0835
0.196557
0.265698
0.241182
0.475575
0.230348
0.355639
0.31124
0.384457
0.242496
0.270197
0.233613
0.30488
0.212399
0.341556
0.29467
0.323128
0.295709
0.338174
0.282941
0.48672
0.222571
0.536616
0.211106
0.315633
0.286333
0.363267
0.274421
0.416604
0.233052
0.270844
0.226751
0.335543
0.226737
0.324317
0.267017
0.435688
0.24579
0.466052
0.223625
0.334087
0.254587
0.331618
0.201846
0.604559
0.182165
0.294572
0.258817
0.300291
0.266742
0.259235
0.212155
0.414109
0.29349
0.277551
0.209224
0.267656
0.245396
0.260849
0.202913
0.30695
0.239721
0.264741
0.228002
0.502844
0.202973
0.390718
0.226602
0.480032
0.210933
0.323013
0.289596
0.39907
0.253918
0.365205
0.333443
0.349109
0.295201
0.275354
0.215222
0.429786
0.228545
0.303806
0.256323
0.233792
0.219495
0.392207
0.296632
0.366941
0.32087
0.302503
0.248679
0.28405
0.243269
0.389559
0.254939
0.407876
0.21157
0.353562
0.29923
0.470683
0.233898
0.357613
0.3035
0.357093
0.291891
0.71618
0.187604
0.329511
0.221656
0.503417
0.218463
0.370691
0.291763
0.282793
0.225796
