# vtk DataFile Version 3.0
Tree
ASCII
DATASET POLYDATA
POINTS 260 float
0 0 0.0287941
0.0102224 -0.000465172 0.00635306
0.000150462 0.00251891 0.0221891
-0.0186399 0.0188893 0.0248949
4.51386e-05 0.000755672 0.0268126
-0.0221553 -0.011581 0.0280585
1.35416e-05 0.000226702 0.0281997
0.0223945 -0.0130672 0.0241893
0.00575134 -0.0101649 0.026935
0.00132201 -0.0254913 0.0271205
-0.00966837 -0.00244412 0.0229378
-0.015617 -9.78687e-05 0.0119061
-0.00178716 0.0110988 0.0225435
0.00933642 0.0191295 0.0211355
0.0176869 -0.00854408 0.0253028
0.0246024 -0.000230147 0.0250283
0.00210931 0.000796265 0.0114544
-0.00436443 -0.000223009 0.00194919
0.00483698 -0.00159143 0.00968853
0.00594595 -0.0138259 0.00867934
-0.012825 -0.0093959 0.0230866
-0.0102389 -0.0194403 0.0190799
3.56595e-05 0.000596981 0.0272287
0.01723 0.0100773 0.0284026
0.00262368 0.00225276 0.0156497
0.0106805 0.00689322 0.0145838
-0.0149178 -0.000357179 0.0202884
-0.0233174 0.00299817 0.0229314
-0.00222367 0.00228917 0.00859397
-0.00781669 0.00700175 0.0093859
0.00083872 0.0175994 0.0236341
-0.00194352 0.027432 0.0276452
0.00301813 -0.0174438 0.0240947
0.00105197 -0.0186452 0.016579
-0.0103732 -0.0136907 0.0186011
-0.00702421 -0.0132553 0.011646
-0.000788985 0.0142169 0.0213128
-0.00122205 0.0171191 0.0110261
0.0131792 0.00933329 0.0259034
0.017501 0.0155461 0.0204829
-0.0105144 0.0192034 0.0257676
-0.0109298 0.0250163 0.0285963
-0.0065693 0.0141883 0.0224274
-0.0141273 0.0129051 0.0136539
-0.00665636 -8.41657e-05 0.0250933
-0.0124378 0.00641322 0.0286472
0.014244 -0.00888613 0.0242108
0.0161131 -0.00786145 0.0143546
0.0151531 0.0103336 0.0233323
0.0189433 0.00449676 0.0179924
0.00110473 -0.0198649 0.0255012
-0.00737796 -0.0192174 0.028306
0.001189 0.0153155 0.0160275
0.00677019 0.0148239 0.0141929
0.00231673 -0.00668689 0.0270486
-0.00443709 -0.0113011 0.0245846
0.00681384 0.00240196 0.0163318
0.0106827 -0.00119192 0.0189996
0.00403958 -0.0178029 0.0196244
0.00891319 -0.0173533 0.0167186
0.00111675 0.00266494 0.00975605
0.00585202 0.0104117 0.00647437
0.01617 0.0152282 0.0226902
0.0154307 0.0203677 0.0251095
-0.0202062 0.00408329 0.0223958
-0.0218057 0.0107083 0.024039
0.00334712 -0.00773029 0.0270145
0.00419423 -0.00655905 0.0185112
0.00226362 0.00123321 0.012713
-0.00414978 -0.00711171 0.0144971
0.00244411 -0.0181702 0.0245166
0.0090127 -0.0235278 0.0254782
-0.0206797 -0.00930805 0.0263999
-0.0248828 -0.00533627 0.0263965
0.0153223 -0.0105795 0.0201891
0.0164931 -0.0158122 0.0182959
-0.0108766 -0.001345 0.0213536
-0.00817459 0.0013819 0.0167316
0.00652434 -0.000911483 0.00627163
0.00470849 -0.000450206 0.00129729
-0.0122085 -0.0128726 0.0213443
-0.015952 -0.0210382 0.0244188
-0.0166305 -0.00184107 0.0173743
-0.0204354 -0.00587907 0.0170659
-0.00274793 0.00318508 0.00522302
-0.00226111 0.00764212 0.00225037
-0.0159679 0.00100768 0.0146765
-0.0154222 0.00634083 0.0139886
0.016876 0.00927421 0.0272807
0.0248281 0.00620101 0.0266375
-0.00913287 -0.0119365 0.0126718
-0.0107277 -0.0080478 0.00736091
0.015759 0.00949961 0.019671
0.0140683 0.012358 0.0148333
-0.0160403 -0.0181516 0.0246804
-0.0194762 -0.0177279 0.0279885
0.00948325 0.00379247 0.0150442
0.0162144 0.00110601 0.0115043
0.0113797 -0.0107153 0.0254869
0.0150166 -0.018755 0.0265155
0.00831982 -0.0101324 0.0097347
0.0121525 -0.0111491 0.0106875
-0.00870271 0.0179796 0.023885
-0.00743667 0.0229997 0.0206714
0.00192576 0.023969 0.0263171
0.00534798 0.0259758 0.0272527
-0.02278 0.0034379 0.0234684
-0.0272569 0.00342631 0.0281063
-0.00458244 0.00115845 0.00369781
-0.0108866 -0.000823162 0.00438401
0.00595188 0.0185574 0.0242232
0.00938834 0.0192722 0.0285938
0.0197512 -0.00216465 0.0262832
0.0178268 0.000904471 0.0278265
0.00502853 -0.00496556 0.0088
-0.000511678 -0.00922048 0.00325287
-0.0037834 -0.00258119 0.0125756
-0.00770574 -0.00208672 0.011154
0.00290942 -0.00844527 0.0211027
0.000573742 -0.011957 0.0180484
-0.0129009 -0.0110276 0.0214294
-0.0152609 -0.0103728 0.0166006
0.0201807 0.0102121 0.0274241
0.0218625 0.0152581 0.0283439
-0.0149576 0.00353674 0.0127013
-0.0129835 0.00394501 0.00840833
0.0129264 -0.00972756 0.0247978
0.0122263 -0.00422623 0.0286209
-0.0108551 0.0131152 0.0205417
-0.0153975 0.0114556 0.023213
-0.00417254 0.0118838 0.0214765
-0.00687028 0.00898267 0.0152123
-0.000295628 0.00876296 0.0223636
0.00512978 0.0109613 0.0219419
0.0185383 0.00412498 0.0182669
0.0202262 -0.00111917 0.0175338
0.0104279 0.00633767 0.014014
0.0118696 0.0106769 0.00936263
0.00707709 -0.00668133 0.00945038
0.0114329 -0.00430396 0.0111088
-0.000862409 0.00965057 0.022432
-0.0033991 0.00813412 0.0276413
0.00305226 0.0183067 0.0231033
0.00386682 0.0202562 0.0183699
-0.00867437 -0.0158303 0.01922
-0.00442102 -0.0164038 0.020401
-0.00618038 0.0113857 0.0159772
-0.00748948 0.0142492 0.0107849
0.009301 0.00556657 0.0251262
0.0105943 0.00336899 0.0219919
-0.0160361 0.00165341 0.0208421
-0.0127063 0.00544042 0.020179
0.00332047 0.0109304 0.0236017
0.00486841 0.0133635 0.0273879
-0.0102977 -0.00122556 0.0193266
-0.0119529 -0.00575086 0.0157886
-0.0150595 -0.00984338 0.0247445
-0.0136376 -0.0127616 0.0285388
-0.0152533 0.000245999 0.0204545
-0.0193365 -0.00337018 0.0238213
7.43989e-05 0.0159536 0.0235116
-0.000551454 0.0143002 0.0285625
0.00188172 0.00233261 0.0176115
-0.000537616 0.00794771 0.0151702
-0.00825254 0.00315847 0.0250362
-0.00740149 0.0059275 0.0218431
-0.00403174 -0.00453286 0.0125098
-0.00485065 -0.00778425 0.00839955
-0.0202172 0.00717014 0.0216849
-0.0188745 0.00942918 0.0184484
-0.0218298 0.00968996 0.0239113
-0.025041 0.010258 0.0276668
0.0199999 -0.00501934 0.0261887
0.0229986 -0.00506921 0.0270662
0.0142327 -0.00977727 0.0214056
0.0102349 -0.00908269 0.0188241
-0.00326517 -0.000332522 0.0256343
-0.00301676 -0.00443764 0.0236765
-0.0144852 -0.0149509 0.0223014
-0.018891 -0.01452 0.0198405
-0.00712692 -0.0127149 0.0122503
-0.00248621 -0.0126921 0.013398
-0.00257157 0.00731696 0.00427809
-0.00281354 0.0115746 0.00609492
0.00181616 -0.0103904 0.0176264
0.00234159 -0.0103755 0.0130507
-0.00719139 0.0150725 0.0235121
-0.00689834 0.0131924 0.0273641
-0.00981913 -0.00359018 0.0181372
-0.00716972 -0.00579179 0.0181113
-0.0155774 -0.0192694 0.025111
-0.0129039 -0.0205692 0.0282603
-0.00539218 -0.0207417 0.0271494
-0.00755678 -0.0241062 0.0265792
0.00323212 -0.00884857 0.00567082
0.00457674 -0.0112729 0.00517972
-0.00844366 -0.0111826 0.00968455
-0.0053044 -0.0125771 0.00655523
0.00834521 0.0202604 0.0260188
0.0105721 0.0238224 0.0256411
0.00537896 0.0123857 0.0250893
0.00890315 0.0133472 0.0245873
-0.00623833 -0.0173557 0.019091
-0.00483522 -0.0206227 0.0174096
-0.0119448 0.0146167 0.0182103
-0.0119421 0.018658 0.018119
-0.00422681 -0.000349356 0.00262496
-0.00271181 -0.00536853 0.00140538
0.000808338 0.00244811 0.0204496
0.00329091 -0.00178733 0.0210022
0.00420637 -0.0212743 0.023939
0.00310769 -0.024664 0.0216293
0.00308244 -0.0181363 0.0216286
0.000340167 -0.0212873 0.0202101
-0.00391409 -0.0131677 0.0115073
-0.000956203 -0.0143582 0.00828517
-0.00385859 -0.010295 0.0262547
-0.00816001 -0.011663 0.0284373
-0.00721388 0.00972995 0.0151638
-0.0110493 0.00831287 0.0129537
0.0044817 0.00312739 0.0155464
0.00541985 0.00812712 0.0132064
-0.0238386 0.00233581 0.0260523
-0.0227234 -0.000488202 0.0287213
-0.0211014 0.00410283 0.0235924
-0.0201655 0.0058363 0.0282612
0.0111761 -0.000704922 0.0186237
0.015761 -0.00253311 0.0199438
0.00674981 -0.0236203 0.0258148
0.00642391 -0.0264335 0.0284393
0.00475056 -0.014809 0.0253125
0.00855957 -0.0168212 0.0256926
-0.00359733 -0.00298368 0.0256346
-0.00473536 -0.00510939 0.027873
-0.0227688 -0.00698314 0.0250437
-0.0233372 -0.00554396 0.0215601
-0.00786788 0.0198745 0.0207238
-0.00716806 0.0190097 0.0162677
0.00361479 0.00563375 0.00669487
0.00462658 0.00441437 0.00257375
0.0168381 0.0184629 0.0252188
0.0196123 0.0194387 0.0282648
-0.0185617 0.0027122 0.0210264
-0.0212679 0.001753 0.0173865
0.000347825 0.00249767 0.0216673
-0.004293 0.00325408 0.0195243
0.00897423 -0.000591179 0.0173596
0.00829773 -0.00384942 0.0167284
0.00162577 -0.00461282 0.0273939
0.00787335 -0.00305671 0.0271817
0.0051207 0.0152439 0.0160689
0.00725765 0.0157621 0.0187963
0.0150256 -0.013296 0.0179419
0.0129246 -0.0143009 0.0143269
0.011709 0.00697738 0.0256837
0.0145893 0.00407458 0.0267211
0.0118161 0.00757992 0.0107848
0.0137379 0.00581517 0.00779698
-0.002929 -0.019086 0.0265703
-0.00402012 -0.0158304 0.026965
LINES 259 777
2 78 1
2 4 2
2 40 3
2 22 4
2 72 5
2 0 6
2 14 7
2 66 8
2 50 9
2 44 10
2 86 11
2 140 12
2 110 13
2 46 14
2 112 15
2 68 16
2 206 17
2 16 18
2 100 19
2 10 20
2 144 21
2 6 22
2 88 23
2 162 24
2 136 25
2 76 26
2 106 27
2 60 28
2 28 29
2 160 30
2 104 31
2 230 32
2 58 33
2 80 34
2 180 35
2 12 36
2 52 37
2 254 38
2 62 39
2 102 40
2 40 41
2 130 42
2 204 43
2 176 44
2 164 45
2 126 46
2 74 47
2 38 48
2 134 49
2 70 50
2 192 51
2 36 52
2 250 53
2 248 54
2 216 55
2 220 56
2 226 57
2 212 58
2 58 59
2 16 60
2 238 61
2 48 62
2 240 63
2 242 64
2 170 65
2 54 66
2 118 67
2 24 68
2 166 69
2 32 70
2 228 71
2 156 72
2 234 73
2 174 74
2 252 75
2 10 76
2 154 77
2 18 78
2 78 79
2 120 80
2 190 81
2 26 82
2 82 83
2 28 84
2 182 85
2 82 86
2 124 87
2 38 88
2 122 89
2 34 90
2 196 91
2 48 92
2 92 93
2 178 94
2 94 95
2 56 96
2 96 97
2 8 98
2 98 99
2 138 100
2 100 101
2 186 102
2 236 103
2 30 104
2 104 105
2 224 106
2 222 107
2 84 108
2 108 109
2 142 110
2 198 111
2 172 112
2 112 113
2 18 114
2 194 115
2 68 116
2 116 117
2 66 118
2 184 119
2 20 120
2 120 121
2 88 122
2 122 123
2 86 124
2 124 125
2 98 126
2 126 127
2 42 128
2 128 129
2 12 130
2 218 131
2 2 132
2 152 133
2 92 134
2 134 135
2 96 136
2 256 137
2 114 138
2 138 139
2 132 140
2 140 141
2 30 142
2 142 143
2 34 144
2 202 145
2 130 146
2 146 147
2 22 148
2 148 149
2 158 150
2 150 151
2 132 152
2 200 153
2 76 154
2 188 155
2 20 156
2 156 157
2 26 158
2 158 159
2 36 160
2 160 161
2 208 162
2 162 163
2 44 164
2 164 165
2 116 166
2 166 167
2 64 168
2 168 169
2 168 170
2 170 171
2 14 172
2 172 173
2 46 174
2 174 175
2 4 176
2 232 177
2 80 178
2 178 179
2 90 180
2 214 181
2 84 182
2 182 183
2 118 184
2 184 185
2 42 186
2 186 187
2 154 188
2 188 189
2 94 190
2 190 191
2 258 192
2 192 193
2 114 194
2 194 195
2 90 196
2 196 197
2 110 198
2 198 199
2 152 200
2 200 201
2 144 202
2 202 203
2 128 204
2 204 205
2 108 206
2 206 207
2 244 208
2 208 209
2 70 210
2 210 211
2 32 212
2 212 213
2 180 214
2 214 215
2 54 216
2 216 217
2 146 218
2 218 219
2 24 220
2 220 221
2 106 222
2 222 223
2 64 224
2 224 225
2 246 226
2 226 227
2 210 228
2 228 229
2 8 230
2 230 231
2 176 232
2 232 233
2 72 234
2 234 235
2 102 236
2 236 237
2 60 238
2 238 239
2 62 240
2 240 241
2 150 242
2 242 243
2 2 244
2 244 245
2 56 246
2 246 247
2 6 248
2 248 249
2 52 250
2 250 251
2 74 252
2 252 253
2 148 254
2 254 255
2 136 256
2 256 257
2 50 258
2 258 259
CELL_DATA 259
SCALARS radius float
LOOKUP_TABLE default
0.208341
0.84202
0.257347
1.00587
0.207602
1.13039
0.228583
0.629869
0.220197
0.73367
0.20038
0.632505
0.225482
0.381155
0.266829
0.569544
0.16157
0.441716
0.246292
0.596783
0.213494
1.04592
0.157338
0.666527
0.144747
0.542037
0.154423
0.424699
0.223741
0.428565
0.250337
0.491859
0.221408
0.479287
0.161383
0.495263
0.224274
0.486462
0.19802
0.315328
0.242781
0.465143
0.244865
0.743208
0.207669
0.470864
0.237031
0.433442
0.169397
0.370426
0.234234
0.326117
0.217473
0.664908
0.178784
0.415761
0.157682
0.288993
0.236822
0.461927
0.227125
0.338883
0.23047
0.445071
0.189195
0.651868
0.185768
0.601174
0.212312
0.441616
0.217803
0.336647
0.236917
0.341189
0.224542
0.567088
0.187293
0.275227
0.227696
0.541077
0.205809
0.359214
0.210498
0.4029
0.207491
0.333295
0.230414
0.322966
0.250186
0.422743
0.254975
0.349013
0.230841
0.337763
0.240267
0.353864
0.23234
0.499538
0.221284
0.306455
0.240096
0.381907
0.218779
0.305328
0.233775
0.332115
0.255165
0.342444
0.254513
0.343178
0.232356
0.324115
0.246899
0.402765
0.245482
0.319196
0.209215
0.300403
0.193894
0.549941
0.199275
0.310006
0.241774
0.307156
0.25584
0.484623
0.211204
0.3353
0.223002
0.508599
0.158815
0.656787
0.171819
0.311455
0.293766
0.316712
0.238411
0.342247
0.224453
0.63813
0.18955
0.369015
0.214237
0.325702
0.216875
0.313879
0.230555
0.501946
0.174731
0.470584
0.198393
0.286293
0.199433
0.284865
0.204951
0.358883
0.200585
0.483318
0.205601
0.442761
0.200699
0.671699
0.190804
0.249888
0.188031
0.28588
0.239827
0.34255
0.22445
0.306834
0.280693
0.351504
0.21091
0.365988
0.210333
0.749314
0.166098
0.3642
0.213812
0.347747
0.244082
0.293352
0.253609
0.274565
0.237573
0.397781
0.193442
0.254819
0.199476
0.291082
0.251698
0.310613
0.257715
0.293366
0.218662
0.322354
0.256724
0.307064
0.254107
0.263968
0.218704
0.291699
0.244517
0.298536
0.228464
0.287127
0.268946
0.675579
0.17416
0.328032
0.213089
0.320323
0.205919
0.335752
0.28565
0.256914
0.224023
0.265277
0.244757
0.428792
0.191037
0.320591
0.253737
0.363345
0.224641
0.270724
0.25157
0.294808
0.248201
0.500316
0.184142
0.216877
0.177776
0.307954
0.251495
0.28984
0.240307
0.28004
0.217189
0.314655
0.266425
0.458523
0.201966
0.679452
0.17472
0.302047
0.197594
0.669592
0.184259
0.286036
0.235838
0.297764
0.247055
0.494786
0.181826
0.306296
0.247628
0.342426
0.216753
