# vtk DataFile Version 3.0
Tree
ASCII
DATASET POLYDATA
POINTS 260 float
0 0 0.0287941
-0.00108484 0.0168428 -0.0217501
-0.00516154 -0.0023137 0.00850434
-0.0175042 -0.0226999 -0.000345742
-0.0067155 -0.0100028 0.00223222
0.00754241 -0.0179196 -0.0192285
-0.00154846 -0.00069411 0.0227072
0.0268244 0.00230905 0.000501101
-0.00263238 -0.00117999 0.0184463
-0.0136619 0.0205079 0.00934508
0.0111592 -0.00539759 0.0117847
0.0195166 -0.0200664 0.00273204
-0.00440279 -0.00197359 0.0114869
-0.028224 0.00262611 -0.00390349
0.00309337 0.00587837 -0.0090237
0.0196612 0.00505056 -0.0195193
-0.0035443 -0.0110683 -0.0100162
-0.00761083 -0.00702226 -0.0231174
0.0187378 0.00336604 0.00383053
0.0203226 0.0170935 -0.00372749
-0.000464538 -0.000208233 0.026968
0.0131111 0.0143551 0.0181986
-0.00125839 0.00484793 -0.00100786
-0.00263625 0.0236794 -0.00560383
-0.0104462 0.0061469 0.0150829
-0.0210851 0.00639785 0.014235
-0.00394206 -0.0124668 -0.00183231
0.00697893 -0.0255478 -0.00317811
0.00769386 0.0108853 0.0171038
0.00927883 0.0186068 0.00426645
-0.0113488 -0.0134456 -5.14112e-05
-0.0190039 -0.0101069 -0.00910764
0.0136411 -0.00972062 0.0067128
0.0127691 -0.00798654 -0.00698434
-0.0151758 0.00199414 -0.000657896
-0.0156536 0.00694006 -0.0142984
-0.00316351 -0.00141807 0.0163585
-0.000280186 -0.0214673 0.012576
-0.00958189 -0.00216136 0.00764259
-0.0206198 -0.0109669 0.00744953
0.0151349 -0.00297751 0.00957274
0.0249412 -0.00501255 0.0113253
-0.00382273 -0.0120472 -0.00428749
-0.0103701 -0.0224925 -0.0120978
-0.002297 -0.0084722 -0.0163346
0.00439595 -0.00526458 -0.0213522
-0.00476606 0.0153983 -0.00642765
-0.0122111 0.0210063 -0.0151117
0.00526058 0.0051981 0.0219779
0.0153712 0.00433538 0.0216217
-0.000789715 -0.000353996 0.0256898
-0.00511565 0.0123675 0.0223506
0.00711626 0.0161243 0.0133968
0.00427246 0.0229774 0.0148678
0.0119038 -0.0066945 0.0102631
0.0139239 -0.019059 0.0135949
-0.0139368 0.0162692 0.00825103
-0.0183189 0.0217823 -0.00111969
-0.00362783 -0.011362 -0.00829762
-0.0123887 -0.00386227 -0.014732
-0.000588106 -0.000263623 0.0264823
-0.00142702 -0.0138052 0.0251504
-0.00496225 -0.0131544 0.014734
-0.0128828 -0.0204203 0.0148795
0.0218174 0.00337841 0.00072844
0.0251391 0.00549285 -0.0119062
-0.000278579 -0.0195623 0.0123528
0.00641421 -0.0265392 0.00869595
0.0058687 -0.0139458 -0.0164462
0.0142354 -0.0115575 -0.01982
-0.00214343 0.0126437 -0.00549508
0.00519782 0.0220985 -0.0133159
-0.00317619 -0.00674688 0.0146729
0.00124271 -0.0101401 0.00837982
0.000980843 -0.0106329 0.0245069
0.00621373 -0.0179515 0.0213299
-0.000499367 0.00521115 -0.0057987
-0.00671622 0.00486626 -0.0151885
-0.00242933 0.00269944 0.0018458
0.00658823 0.00849082 0.0030291
-0.00809496 -0.0162331 -0.0102542
-0.011598 -0.0150592 -0.016671
-0.0118241 0.0103152 0.0137643
-0.0135562 0.0163989 0.01884
-0.00789434 0.00243121 0.0174301
-0.0162181 0.0021103 0.021518
-0.0142285 0.0132711 0.0103225
-0.0225093 0.0131413 0.00611352
-0.00230721 -0.00103422 0.0197246
-0.011577 -0.00631298 0.0195374
-0.00353529 -0.00158472 0.014897
-0.00318278 0.00600651 0.0116985
0.0201279 -0.0051269 0.00855477
0.0245616 -0.00890959 0.00443493
0.0156216 -0.00861852 0.000825287
0.0214617 -0.00727089 -0.00257363
0.021649 0.00276863 -0.00557241
0.0183689 -0.000611742 -0.0109449
-0.0201083 0.000155202 -0.0023715
-0.0216078 -0.00511518 -0.00399596
0.0193097 0.0102027 0.00244679
0.0194218 0.0160163 0.00536692
-0.000139362 -6.24699e-05 0.0282463
0.00973172 -0.0045272 0.0267061
-0.00247542 0.00887821 -0.00229203
-0.00773888 0.0141462 0.00103755
-0.0142825 0.000820438 0.0189699
-0.0211965 -0.0029548 0.0182577
0.00619211 0.0140452 0.0148762
-0.00125887 0.0173652 0.0125781
-0.0119669 -0.0055057 -0.0142542
-0.0183917 -0.00330337 -0.0185409
-0.000785327 0.0105484 -0.0182914
-0.00325667 0.00942691 -0.0223023
0.0158964 -0.0147812 0.00166716
0.0166597 -0.0189263 -0.00789527
-0.00196906 0.00935404 0.023598
0.00117823 0.016144 0.0229894
-0.00376426 -0.0118417 -0.00549053
0.00463756 -0.00849687 -0.00719817
-0.00825307 -0.0170435 0.0127209
-0.00992614 -0.020816 0.00741964
0.00155109 0.00882133 -0.015931
0.00620662 0.00988712 -0.0246007
0.0103712 0.0116415 0.0165419
0.0163705 0.00959505 0.0109791
0.0103948 0.00460442 -0.0167319
0.0102351 0.0022746 -0.0245581
0.00482147 0.0203416 -0.010362
0.0101462 0.023928 -0.00946998
-0.0181112 0.00170584 -0.000770391
-0.0238115 0.00453219 0.00282257
-0.0231079 0.000738408 -0.00414059
-0.0258825 -0.000444362 -0.0120533
0.00201555 0.00567821 -0.0080562
0.00830126 0.0116033 -0.00509982
0.0126597 -0.0161814 0.010664
0.0117177 -0.0229126 0.00693511
0.0188658 -0.00801631 -0.00231154
0.0241944 -0.00768611 -0.0130833
-0.00886406 0.00384318 0.0165381
-0.0113025 0.00821367 0.0208559
-0.00207805 0.00334398 0.000989699
-0.0088587 0.00155096 -0.0069326
0.00775231 0.0197902 0.00704935
0.00691634 0.0263796 0.00116209
-0.0152267 0.00773724 0.015712
-0.0184004 0.0116116 0.0180566
-0.00638085 0.013307 -0.00138208
-0.010408 0.0186747 -0.00284746
-0.0101698 -0.00644073 0.0187757
-0.0171453 -0.0128021 0.0166031
-0.00224303 0.0115141 -0.00453416
0.00118001 0.0174242 -0.00146665
0.00201568 -0.0164907 -0.00419235
0.00797472 -0.0156255 -0.00910747
-0.00600825 0.00507832 -0.0137464
-0.0136489 0.00571582 -0.0229964
0.0016872 0.0179668 -0.00956307
-0.000153916 0.0226233 -0.0168225
-0.00562773 -0.00462043 0.0066227
-0.00823272 -0.00942538 0.00979658
0.00380437 -0.0169135 -0.00659656
0.00329958 -0.0211795 -0.0118861
-0.0108596 0.00739739 0.0146873
-0.014174 0.00684094 0.00860423
-0.000147122 0.00645558 0.00290098
-0.00200792 0.0111502 0.00460005
-0.00596821 -0.0090856 -0.0204373
-0.00933553 -0.01232 -0.0232352
-0.0170149 0.00709387 -0.00791305
-0.0211978 0.014555 -0.01098
-0.00255592 0.00424371 -0.00864626
-0.00456476 -0.00144292 -0.0108108
-0.0192324 0.00714919 0.0140081
-0.0258449 0.00765072 0.00807753
0.00896656 0.00399568 -0.0143394
0.0142746 -0.00220063 -0.0145082
-0.00132084 -0.000592076 0.0236019
-0.0105993 0.000409564 0.0237828
0.00566425 0.0240799 0.00392598
0.00125035 0.02758 0.00262275
-0.00221154 0.00309906 0.00131502
0.00582076 -0.00351453 -0.00390443
0.00410434 0.0101231 -0.0187918
0.0108101 0.0160644 -0.0196454
-0.0150334 -0.0172451 -0.00205305
-0.0192321 -0.019083 -0.00694784
0.00902037 0.0186929 0.00517194
0.0129936 0.0149112 0.0005965
-0.0202139 0.013969 0.00624516
-0.0237752 0.0159489 0.00177343
-0.0127014 0.0188136 0.00811743
-0.00564231 0.0262687 0.00518675
0.0113826 -0.00578667 0.0113282
0.0165714 -0.00816576 0.0167053
-0.0092645 0.0204392 0.00658314
-0.00647744 0.0182294 0.00514984
0.00655506 0.00962322 -0.00712486
0.0151345 0.0156584 -0.0104841
0.0214303 -0.00933804 -0.00678226
0.0234573 -0.0130198 -0.00904545
0.00248565 -0.00884734 -0.00794399
0.00655425 -0.00592593 -0.0118134
-0.00474216 0.0100828 -0.00255458
-0.0111345 0.00894092 -0.00592228
-0.0164543 0.00393338 -0.00540531
-0.0186593 0.000182371 -0.0122843
-0.00477409 -0.0117276 -0.000612954
-0.00459607 -0.0223653 0.00229484
0.0072438 -0.0159219 -0.017126
0.012463 -0.0203968 -0.0159359
0.00126107 0.00553809 -0.00737895
0.00218157 -0.00243245 -0.0129437
0.00588205 0.00786682 -0.00710356
0.0130966 0.00694005 -0.00464439
-0.0133568 -0.00410933 -0.0168568
-0.0114237 -0.00240637 -0.0198747
0.0144941 0.0145754 -0.0093992
0.0202013 0.0169635 -0.00948879
0.0210081 0.0131092 -0.00191826
0.0242177 0.0127077 -0.00608635
0.0148256 -0.00663506 -0.00325848
0.0152239 -0.00207645 -0.00706562
0.0133807 -0.0120338 0.00490555
0.00743172 -0.0164837 0.00353476
0.000351437 -0.00851938 -0.0197382
0.00142488 -0.0113901 -0.0241895
0.0194943 0.00582192 0.00398795
0.0230383 0.00772305 0.00762364
0.0105756 0.0179369 0.00276104
0.0124664 0.020586 -0.00322473
-0.0117076 -0.000582274 0.00448841
-0.0219822 -0.000134861 0.00691725
0.000242195 0.000179713 -0.00217255
-0.000333036 -0.00165838 -0.00666675
-0.0152829 -0.00688991 0.00560413
-0.017328 -0.00898556 0.000583011
0.000200087 0.0167598 -0.00303822
0.00257034 0.0234944 -0.00269722
0.0134415 -0.0073708 -0.00635374
0.0124304 -0.00696707 -0.0117947
0.00734693 -0.00398655 0.0150614
0.00972664 -0.00995224 0.0176686
-0.0232068 0.00329929 0.00214368
-0.0281664 0.0033591 0.00450421
0.000850165 0.00933947 -0.0166391
-0.00213739 0.00463035 -0.0200865
0.00586843 0.0220389 0.00547366
0.000709338 0.022677 0.00538763
0.0246737 0.00155977 0.00093786
0.0277268 -0.00220013 0.00167123
-0.00722058 -0.00514506 0.0199709
-0.00876048 -0.0107022 0.024941
-0.00993211 -0.0159691 -0.0156927
-0.00965188 -0.0169674 -0.0205106
0.0142029 0.0035399 -0.0183323
0.0160526 0.000420152 -0.0200584
0.015118 -0.0172526 -0.00136867
0.0124621 -0.0200548 -0.000978705
LINES 259 777
2 112 1
2 12 2
2 186 3
2 160 4
2 210 5
2 178 6
2 250 7
2 88 8
2 192 9
2 242 10
2 114 11
2 90 12
2 132 13
2 134 14
2 256 15
2 58 16
2 168 17
2 40 18
2 220 19
2 102 20
2 124 21
2 142 22
2 46 23
2 140 24
2 174 25
2 208 26
2 154 27
2 48 28
2 188 29
2 4 30
2 30 31
2 54 32
2 240 33
2 232 34
2 170 35
2 8 36
2 66 37
2 12 38
2 236 39
2 10 40
2 92 41
2 26 42
2 80 43
2 16 44
2 226 45
2 70 46
2 46 47
2 20 48
2 48 49
2 60 50
2 116 51
2 108 52
2 52 53
2 194 54
2 136 55
2 86 56
2 56 57
2 118 58
2 110 59
2 20 60
2 74 61
2 72 62
2 120 63
2 18 64
2 96 65
2 62 66
2 66 67
2 16 68
2 68 69
2 152 70
2 128 71
2 36 72
2 72 73
2 60 74
2 74 75
2 22 76
2 156 77
2 2 78
2 166 79
2 42 80
2 254 81
2 164 82
2 82 83
2 8 84
2 106 85
2 82 86
2 190 87
2 6 88
2 150 89
2 36 90
2 90 91
2 40 92
2 92 93
2 32 94
2 138 95
2 64 96
2 96 97
2 130 98
2 98 99
2 228 100
2 100 101
2 0 102
2 102 103
2 22 104
2 148 105
2 84 106
2 106 107
2 28 108
2 108 109
2 58 110
2 216 111
2 246 112
2 112 113
2 224 114
2 258 115
2 50 116
2 116 117
2 42 118
2 202 119
2 62 120
2 120 121
2 14 122
2 184 123
2 28 124
2 124 125
2 176 126
2 126 127
2 158 128
2 128 129
2 34 130
2 244 131
2 98 132
2 132 133
2 212 134
2 198 135
2 54 136
2 136 137
2 94 138
2 200 139
2 84 140
2 140 141
2 182 142
2 142 143
2 52 144
2 180 145
2 24 146
2 146 147
2 204 148
2 148 149
2 252 150
2 150 151
2 104 152
2 238 153
2 26 154
2 162 155
2 172 156
2 156 157
2 70 158
2 158 159
2 2 160
2 160 161
2 154 162
2 162 163
2 24 164
2 164 165
2 78 166
2 166 167
2 44 168
2 168 169
2 206 170
2 170 171
2 76 172
2 172 173
2 146 174
2 174 175
2 14 176
2 176 177
2 50 178
2 178 179
2 248 180
2 180 181
2 78 182
2 234 183
2 122 184
2 184 185
2 30 186
2 186 187
2 144 188
2 230 189
2 86 190
2 190 191
2 56 192
2 196 193
2 10 194
2 194 195
2 192 196
2 196 197
2 214 198
2 218 199
2 138 200
2 200 201
2 118 202
2 202 203
2 104 204
2 204 205
2 34 206
2 206 207
2 4 208
2 208 209
2 68 210
2 210 211
2 76 212
2 212 213
2 134 214
2 214 215
2 110 216
2 216 217
2 198 218
2 218 219
2 100 220
2 220 221
2 94 222
2 222 223
2 32 224
2 224 225
2 44 226
2 226 227
2 18 228
2 228 229
2 188 230
2 230 231
2 38 232
2 232 233
2 182 234
2 234 235
2 38 236
2 236 237
2 152 238
2 238 239
2 222 240
2 240 241
2 6 242
2 242 243
2 130 244
2 244 245
2 122 246
2 246 247
2 144 248
2 248 249
2 64 250
2 250 251
2 88 252
2 252 253
2 80 254
2 254 255
2 126 256
2 256 257
2 114 258
2 258 259
CELL_DATA 259
SCALARS radius float
LOOKUP_TABLE default
0.268846
0.948422
0.243262
0.712119
0.233503
1.18267
0.210929
1.08251
0.19291
0.703783
0.237823
1.00526
0.246591
0.544488
0.279823
0.509098
0.248955
0.51475
0.26711
1.22852
0.196333
0.755616
0.25029
0.531665
0.186489
0.671556
0.258808
0.518993
0.160102
0.357734
0.25286
0.532238
0.188559
0.501903
0.253394
1.0291
0.187905
0.545988
0.235517
0.544243
0.224029
0.635108
0.244171
0.414434
0.260774
0.332472
0.276204
0.530687
0.213004
1.18944
0.203544
0.47622
0.225726
0.563021
0.221287
0.403424
0.27077
0.568017
0.196398
1.19459
0.196182
0.385641
0.236046
0.410559
0.281579
0.311073
0.286297
0.393149
0.286596
0.451055
0.239807
0.404775
0.207756
0.279994
0.243288
0.652548
0.179869
0.785693
0.225847
0.361178
0.224632
0.473166
0.220334
0.563199
0.193928
0.456672
0.215066
1.09089
0.160441
1.00778
0.197183
0.291671
0.238516
0.452893
0.197483
0.351358
0.276113
0.363085
0.229119
0.383689
0.250392
1.2304
0.204144
0.535495
0.203095
0.275374
0.238629
0.492491
0.225404
0.371613
0.289816
0.323585
0.243569
0.359341
0.27138
0.274784
0.230929
0.593507
0.201915
0.300926
0.24158
0.44393
0.2562
0.272974
0.233754
0.386382
0.267359
0.329841
0.280604
0.420832
0.194822
0.329697
0.275206
0.606067
0.199437
0.30258
0.256454
0.36603
0.287236
0.54034
0.195546
0.762143
0.224247
0.458678
0.249621
0.329143
0.211017
0.289948
0.251978
0.271586
0.251468
0.489878
0.19223
0.360073
0.235236
0.317367
0.296805
0.380334
0.267455
0.716668
0.19097
0.308459
0.253716
0.485767
0.205601
0.275321
0.210672
0.32956
0.273076
0.333564
0.275208
0.348988
0.219241
0.29724
0.270424
0.419712
0.253302
1.18453
0.198411
0.332718
0.277106
0.774258
0.229633
0.339422
0.281418
0.309382
0.247809
0.354692
0.257272
0.30927
0.269773
0.3578
0.286852
0.572242
0.207338
0.338036
0.246751
0.363071
0.221363
0.345767
0.260314
0.295472
0.25994
0.330176
0.226492
0.373021
0.245463
0.680657
0.231963
0.333903
0.290423
0.617418
0.23358
0.394071
0.237142
0.352346
0.268702
0.341788
0.307515
0.344224
0.279051
0.352643
0.245049
0.386815
0.225567
0.32831
0.260386
0.406535
0.220374
0.343467
0.286393
0.517127
0.228033
0.277848
0.210601
0.290321
0.225105
0.295466
0.265385
0.307721
0.282038
0.708726
0.194834
0.298748
0.268093
0.364389
0.243859
0.372955
0.246862
0.295593
0.25429
0.309756
0.213185
0.319316
0.276867
0.337878
0.255414
0.320589
0.234909
