# vtk DataFile Version 3.0
Tree
ASCII
DATASET POLYDATA
POINTS 260 float
0 0 0.0287941
0.0102224 -0.000465172 0.00635306
-0.00404647 0.00776139 0.0188533
-0.0186399 0.0188893 0.0248949
-0.0158843 0.00286468 0.0244715
-0.0221553 -0.011581 0.0280585
0.0100552 -0.00271419 0.0184694
0.0223945 -0.0130672 0.0241893
0.00897851 -0.0144547 0.023304
0.00132201 -0.0254913 0.0271205
1.471e-05 -0.00266219 0.0170892
-0.00565845 -0.0174936 0.0129918
0.00348864 0.00731228 0.0245299
0.0182401 0.0150276 0.0277661
-0.00307496 -0.00621588 0.0113066
-0.00453621 0.00159625 0.00111995
0.00666439 0.0145034 0.0259074
-0.00202821 0.0241772 0.0257509
0.0013635 -0.0196768 0.0260475
-0.00946767 -0.0204917 0.0287404
0.000557824 0.0048334 0.0156421
0.00659575 0.0121951 0.00990478
0.012682 -0.00612168 0.0229335
0.0209747 0.00188838 0.0275062
-0.0110004 0.0058044 0.0184637
-0.0119709 0.00776742 0.00943597
0.0116728 0.00123524 0.0139464
0.0156414 0.00882061 0.0161631
-0.00134012 -0.0117704 0.0108946
0.00607345 -0.0131647 0.00790908
-0.0159012 0.0123448 0.0226429
-0.0127956 0.0184085 0.017457
-0.0165669 -0.00589068 0.0244075
-0.0111555 -0.0118951 0.0201434
-0.00656811 -0.00331768 0.00881011
-0.0138805 -0.0047933 0.0140324
-0.00104362 0.0205426 0.0266102
-0.0109298 0.0250163 0.0285963
-0.0182783 0.00807225 0.0245696
-0.0244151 0.0106287 0.0269115
0.0114027 0.0152524 0.0238649
0.0103577 0.0165793 0.0164885
-0.018036 -0.000867786 0.0235741
-0.0227889 -0.000459436 0.0213395
0.00217863 0.0183976 0.0240405
-0.000547038 0.0215094 0.0184369
-0.0012448 0.00824607 0.0225979
-0.00717811 0.0126028 0.0281652
0.0044511 -0.00455527 0.0204595
0.00151539 -0.00934888 0.0271545
0.00493913 -0.0173954 0.022084
0.00543073 -0.0174971 0.0150275
0.0139463 -0.0124321 0.0204702
0.011388 -0.00881693 0.0121716
0.000410235 0.00292618 0.0263852
-0.00778486 -0.00155785 0.0246848
0.000607774 0.00936161 0.0118949
-0.00616427 0.0125922 0.00881611
0.0179853 -0.00208034 0.0228248
0.0221451 -0.000842664 0.0173194
0.0170535 -0.0152503 0.0231038
0.0153883 -0.0217714 0.0256253
0.00708044 0.00982032 0.0257588
0.0117797 0.00599657 0.0269511
-0.00336469 -0.00209682 0.00441116
0.0025505 -0.00457338 0.00188833
0.0224252 -0.00264822 0.0254634
0.0270617 -0.00541679 0.0267665
0.0105877 0.0180611 0.0214251
0.00968605 0.0237672 0.0235817
0.000990215 -0.00740398 0.0229095
-0.0045541 -0.00925083 0.021558
-0.0191698 -0.011026 0.0265785
-0.0194762 -0.0177279 0.0279885
0.00467081 -0.0232246 0.0264076
0.00925878 -0.0252166 0.0263683
-0.00976185 -0.00593855 0.0114377
-0.00961729 -0.0109915 0.0122262
-0.0233381 0.00665781 0.0265468
-0.0272569 0.00342631 0.0281063
0.0168512 0.0143396 0.0252209
0.0230475 0.0122494 0.0242494
0.000853686 0.00108274 0.0154303
0.00433926 0.00106518 0.00968455
-0.00165508 0.0126093 0.0110178
0.000265614 0.0172685 0.0122809
-0.0152213 0.00387209 0.0194676
-0.0190982 0.00310289 0.0134663
0.0147269 0.00480374 0.0166461
0.0180446 0.00531088 0.0210547
0.0110257 -0.00943952 0.0238891
0.0122263 -0.00422623 0.0286209
-0.00494471 -0.0183594 0.0273827
-0.00878735 -0.0140406 0.0277384
-0.0148153 -0.0125883 0.0225813
-0.015102 -0.0188351 0.0221915
-0.00275076 -0.0147856 0.0136894
-0.00144289 -0.015998 0.0184792
0.0234659 0.00217992 0.026436
0.0256284 0.00657904 0.0267576
-0.00105553 0.00705804 0.0173129
0.00317566 0.0117306 0.0177138
-0.0112865 0.00493496 0.0140238
-0.010913 0.000455799 0.0129242
-0.00314408 -0.0194014 0.0252688
-0.0075256 -0.0201988 0.0217406
0.00239923 0.00916253 0.00750132
0.000738592 0.00693116 0.00280816
0.002964 0.00792367 0.0142171
0.00909423 0.010695 0.0148354
-0.0062658 0.00975661 0.0260858
-0.012396 0.00866173 0.0286922
-0.0020624 -0.00193595 0.0127697
-0.00387248 0.00399289 0.00827116
0.0013191 -0.0116821 0.00786141
-0.000315546 -0.00986141 0.00347385
0.0072579 -0.00273166 0.0194867
0.00728709 0.0028158 0.0196231
0.0123262 -0.000768225 0.0102586
0.0156638 -0.00397666 0.00945391
-0.0195876 -0.00724993 0.0256228
-0.0243804 -0.00487622 0.0262666
0.00235511 -0.00465601 0.0183519
0.00310584 -0.0110893 0.015757
-0.00936018 -0.0040115 0.00918666
-0.0128898 -0.00280033 0.00715193
0.00622149 0.00863917 0.00768268
0.0094016 0.00640015 0.00673139
-0.00726703 0.00781296 0.0182919
-0.00569186 0.0141405 0.0160397
0.0152339 -0.00275805 0.023877
0.0157349 0.00127262 0.0264273
-0.00725157 0.0219616 0.0266407
-0.0119164 0.0204976 0.0244494
-0.0155515 -0.00858314 0.0220713
-0.0154428 -0.00593864 0.0186727
-0.0151363 -0.0149327 0.0194375
-0.0153271 -0.012667 0.0154394
0.000291736 0.0241798 0.0270505
0.00262809 0.0273853 0.0280882
0.00373763 0.00636352 0.004231
0.00641621 0.0036139 0.00206141
-0.00167147 -0.00271553 0.0152575
-0.00564977 -0.00527379 0.0172727
0.0145702 -0.00945278 0.0160126
0.0190984 -0.00592326 0.0140341
0.0135735 -0.00753895 0.0256993
0.0187528 -0.00860981 0.0249462
-0.00466342 0.0011538 0.00952274
-0.00928311 0.00232306 0.00631456
0.00422461 -0.0179725 0.0251395
0.00647371 -0.016849 0.028467
0.00477092 -0.0101933 0.0069279
0.00716053 -0.00739616 0.00561494
0.00273964 0.00449823 0.0253644
0.00759373 0.000683499 0.024792
0.0184742 0.011924 0.0248549
0.015566 0.00810121 0.025024
-0.0140425 0.0139359 0.0195148
-0.012812 0.0110974 0.0173979
-0.0128213 0.00402229 0.01901
-0.0110422 -0.000990013 0.0192828
0.0129191 0.0161831 0.0183518
0.0162536 0.0143305 0.016576
0.00965226 -0.0115413 0.0242566
0.0075032 -0.00904827 0.0283112
0.00338109 -0.0184611 0.0182439
-0.00118713 -0.0210854 0.0164338
-0.00497175 -0.00167994 0.0264544
-0.00944531 -0.00839966 0.0285758
-0.00677317 0.0123563 0.0183798
-0.00730343 0.0168076 0.0211797
-0.00575759 -0.00397439 0.00599839
-0.00824972 -0.00740716 0.00505248
-0.0026568 0.00108843 0.0267182
-0.00496681 0.00394673 0.028551
0.0112145 -0.0150021 0.0211016
0.00986741 -0.0192991 0.0194865
0.0105712 -0.0044091 0.0214178
0.00567293 -0.00435481 0.025818
0.00540281 0.0110189 0.014294
0.00466805 0.015811 0.013785
0.00215129 0.00769952 0.0232999
0.00847455 0.00721022 0.0216785
-0.0170776 0.0051055 0.0166202
-0.0174201 0.00915621 0.0161571
-0.00244512 0.00870314 0.0207091
-0.00121341 0.0129995 0.020608
0.01332 0.00406925 0.0137571
0.0140653 0.00727844 0.010185
0.0129402 -0.000288106 0.0154523
0.0185099 0.00143677 0.0128632
-0.00447366 -0.0157655 0.0166314
-0.00750684 -0.0165126 0.0182992
-0.0181391 0.00168246 0.0152372
-0.0185947 -0.0020433 0.0149043
0.00261547 -0.00671271 0.015929
0.002427 -0.00464904 0.0126643
-0.00596355 -0.00548215 0.0276706
-0.00212308 -0.00565967 0.0277672
-0.00675733 -0.0217076 0.0279735
-0.006999 -0.0252651 0.0281105
-0.0169153 0.0141993 0.025077
-0.0163928 0.0114886 0.0287625
-0.00922868 0.0074502 0.027309
-0.00984156 0.00277072 0.0274754
0.0030165 0.0158057 0.0258008
-0.00123719 0.014704 0.0276601
0.0143224 -0.0121061 0.0175141
0.0145764 -0.0146727 0.0150071
-0.000997853 -0.0182609 0.0262952
-0.000630512 -0.0150134 0.0280445
-0.00031892 0.0198216 0.019757
-0.00362614 0.019927 0.0151463
0.02035 -0.0030279 0.0206149
0.0216765 -0.00687899 0.0212242
0.0212574 -0.0146112 0.0256281
0.0243922 -0.0148202 0.0285714
0.0176476 0.00728272 0.0183201
0.0200221 0.0104525 0.0184276
-0.0168449 -0.00315826 0.0244492
-0.0140399 -0.00180089 0.0272653
0.0151493 0.00597174 0.0182109
0.0120631 0.00543379 0.0198433
0.0143082 0.0163257 0.0252708
0.0155527 0.0201288 0.0273361
0.000778395 -0.0204571 0.0183309
-0.000693425 -0.0225905 0.0206232
-0.0028633 0.0087807 0.0254417
-0.00128689 0.00842912 0.0287683
-0.0182473 0.00492456 0.0254821
-0.0209034 0.00278199 0.0279408
-0.00361637 -0.00930099 0.0127122
-0.00699124 -0.0108861 0.0167973
0.00666181 -0.0153541 0.0229642
0.00483732 -0.0118466 0.0246242
-0.0092291 0.00733437 0.0189803
-0.00981491 0.0105636 0.0226815
-0.00554851 -0.0158985 0.0264688
-0.00270956 -0.0145062 0.0237123
-0.00680079 0.00307351 0.00859776
-0.00701722 0.0066736 0.00988573
-0.0201857 -0.00264148 0.0210463
-0.0207778 -0.00529504 0.0186728
-0.00227124 -0.0087568 0.0235116
-0.00432148 -0.0101248 0.0266045
0.00943322 0.0146593 0.025359
0.0118882 0.0133167 0.0282638
-0.00410318 0.0216058 0.025153
-0.00487581 0.0227179 0.0213709
0.0212748 0.0100413 0.0236018
0.0228556 0.00727872 0.0221741
-0.00770686 0.0134693 0.0154869
-0.00953691 0.0141142 0.012662
-0.0106715 0.00157407 0.0191879
-0.00717663 0.001007 0.0193336
0.00886129 0.0204326 0.0219277
0.00545248 0.0200096 0.0207553
-0.0164579 0.0164526 0.0255076
-0.0133108 0.0168869 0.0268229
LINES 259 777
2 118 1
2 186 2
2 258 3
2 86 4
2 72 5
2 116 6
2 216 7
2 164 8
2 74 9
2 82 10
2 96 11
2 154 12
2 80 13
2 112 14
2 64 15
2 62 16
2 138 17
2 150 18
2 200 19
2 100 20
2 126 21
2 178 22
2 98 23
2 236 24
2 102 25
2 190 26
2 88 27
2 232 28
2 152 29
2 38 30
2 158 31
2 220 32
2 94 33
2 14 34
2 76 35
2 44 36
2 132 37
2 230 38
2 78 39
2 246 40
2 162 41
2 4 42
2 242 43
2 206 44
2 212 45
2 182 46
2 110 47
2 122 48
2 70 49
2 234 50
2 166 51
2 176 52
2 144 53
2 0 54
2 168 55
2 108 56
2 84 57
2 130 58
2 214 59
2 52 60
2 60 61
2 12 62
2 62 63
2 172 64
2 64 65
2 58 66
2 66 67
2 40 68
2 256 69
2 48 70
2 244 71
2 120 72
2 72 73
2 18 74
2 74 75
2 124 76
2 76 77
2 38 78
2 78 79
2 224 80
2 250 81
2 20 82
2 82 83
2 56 84
2 84 85
2 160 86
2 194 87
2 188 88
2 218 89
2 22 90
2 146 91
2 104 92
2 238 93
2 134 94
2 136 95
2 28 96
2 192 97
2 66 98
2 98 99
2 2 100
2 100 101
2 24 102
2 102 103
2 210 104
2 104 105
2 56 106
2 140 107
2 20 108
2 180 109
2 228 110
2 204 111
2 142 112
2 148 113
2 28 114
2 114 115
2 48 116
2 116 117
2 26 118
2 118 119
2 32 120
2 120 121
2 10 122
2 196 123
2 34 124
2 124 125
2 106 126
2 126 127
2 2 128
2 252 129
2 22 130
2 130 131
2 248 132
2 132 133
2 32 134
2 134 135
2 94 136
2 136 137
2 36 138
2 138 139
2 106 140
2 140 141
2 10 142
2 142 143
2 208 144
2 144 145
2 90 146
2 146 147
2 112 148
2 240 149
2 50 150
2 150 151
2 114 152
2 152 153
2 54 154
2 154 155
2 80 156
2 156 157
2 30 158
2 158 159
2 24 160
2 254 161
2 68 162
2 162 163
2 90 164
2 164 165
2 50 166
2 226 167
2 174 168
2 198 169
2 128 170
2 170 171
2 34 172
2 172 173
2 54 174
2 174 175
2 8 176
2 176 177
2 6 178
2 178 179
2 108 180
2 180 181
2 12 182
2 182 183
2 86 184
2 184 185
2 46 186
2 186 187
2 26 188
2 188 189
2 6 190
2 190 191
2 96 192
2 192 193
2 184 194
2 194 195
2 122 196
2 196 197
2 168 198
2 198 199
2 92 200
2 200 201
2 30 202
2 202 203
2 110 204
2 204 205
2 16 206
2 206 207
2 52 208
2 208 209
2 18 210
2 210 211
2 44 212
2 212 213
2 58 214
2 214 215
2 60 216
2 216 217
2 222 218
2 218 219
2 42 220
2 220 221
2 88 222
2 222 223
2 40 224
2 224 225
2 166 226
2 226 227
2 46 228
2 228 229
2 4 230
2 230 231
2 14 232
2 232 233
2 8 234
2 234 235
2 128 236
2 236 237
2 92 238
2 238 239
2 148 240
2 240 241
2 42 242
2 242 243
2 70 244
2 244 245
2 16 246
2 246 247
2 36 248
2 248 249
2 156 250
2 250 251
2 170 252
2 252 253
2 160 254
2 254 255
2 68 256
2 256 257
2 202 258
2 258 259
CELL_DATA 259
SCALARS radius float
LOOKUP_TABLE default
0.240345
1.13201
0.257214
0.65402
0.24246
0.874419
0.264031
0.740147
0.27369
0.98863
0.233318
1.19676
0.194923
0.584853
0.253392
0.596072
0.215361
0.577187
0.299595
1.0224
0.237912
0.814427
0.257149
0.699959
0.216136
0.475655
0.235272
0.46177
0.256547
0.43881
0.267541
0.502641
0.249402
0.450929
0.254274
0.412055
0.259855
0.486479
0.2403
0.474751
0.222228
0.539504
0.21923
0.451807
0.193619
1.14202
0.187253
0.892094
0.212155
0.634107
0.241052
0.506107
0.278577
1.20542
0.178298
0.424538
0.224271
0.447235
0.245823
0.412729
0.28581
0.602124
0.186782
0.332346
0.273415
0.392192
0.256525
0.35903
0.223091
0.32219
0.220909
0.337633
0.289389
0.353761
0.28753
0.321284
0.255728
0.312905
0.255915
0.374485
0.245453
0.991244
0.197359
0.283802
0.226228
0.676306
0.208796
0.407317
0.267694
0.761195
0.229783
0.483305
0.301091
0.397511
0.288389
0.364583
0.261637
0.351542
0.297912
1.02457
0.189698
0.267054
0.207614
0.512241
0.278132
0.377175
0.230458
0.455893
0.201814
0.306285
0.21566
0.615065
0.19778
0.368412
0.242936
0.87786
0.199365
0.304937
0.243689
0.374671
0.241627
0.89903
0.206087
0.35322
0.221757
0.297895
0.234948
0.721174
0.193917
0.462843
0.213241
0.328905
0.262237
0.42058
0.226258
0.361648
0.285678
0.287684
0.239982
0.300818
0.246521
0.621127
0.190813
0.359662
0.292033
0.294975
0.238307
0.319556
0.228736
0.588497
0.225891
0.329168
0.265811
1.19812
0.179931
0.355982
0.237276
0.325226
0.247983
0.686754
0.185957
0.290344
0.238117
0.746134
0.214852
0.37122
0.257684
0.298241
0.223445
0.296713
0.205228
0.362467
0.221809
0.316286
0.172271
0.520133
0.22293
0.819381
0.21485
0.263217
0.215564
1.14363
0.184777
0.309278
0.199703
1.13331
0.170752
0.429556
0.226918
0.491135
0.221396
0.329456
0.261341
0.278577
0.23218
0.255544
0.199456
0.275277
0.213294
0.384868
0.311128
0.368636
0.250068
0.280911
0.22981
0.462602
0.189175
0.390025
0.233958
0.528975
0.23874
0.281322
0.246654
0.307693
0.242587
0.360778
0.305645
0.344045
0.27824
0.513622
0.204134
0.379264
0.240036
0.393054
0.201703
0.333669
0.271615
0.3235
0.172381
0.496943
0.196528
0.476749
0.214693
0.642114
0.213861
0.704027
0.181856
0.382322
0.305771
0.291992
0.234697
0.278206
0.222372
0.288034
0.23583
0.483157
0.179518
0.358702
0.219481
0.31666
0.25695
0.259517
0.216774
0.244182
0.201068
0.27937
0.220364
0.325406
0.259327
