# vtk DataFile Version 3.0
Tree
ASCII
DATASET POLYDATA
POINTS 260 float
0 0 0.0287941
-0.00108484 0.0168428 -0.0217501
-0.00274349 0.00136957 0.0110676
-0.0175042 -0.0226999 -0.000345742
-0.00192045 0.000958699 0.0163855
0.00754241 -0.0179196 -0.0192285
-0.000576134 0.00028761 0.0250715
0.0210264 0.00600432 0.0166468
-0.00151715 0.000757372 0.0189913
-0.0260921 0.00520429 -0.00202885
-0.00017284 8.62829e-05 0.0276773
0.0203226 0.0170935 -0.00372749
-5.18521e-05 2.58849e-05 0.0284591
-0.00993139 0.0234124 0.0122852
0.00502688 -0.00296008 -0.00219922
0.0147804 0.00314447 -0.0194623
0.00574007 0.011619 0.0121104
0.00337718 0.0266969 -0.00100053
0.00877786 0.00178942 0.0191567
0.0245761 -1.02312e-05 -0.00092961
-0.00313043 0.00487585 -0.00721564
-0.00554711 0.000629229 -0.0261002
-1.55556e-05 7.76546e-06 0.0286936
0.0150553 -0.0241913 0.0028302
-0.0107351 -0.0074928 0.00296512
-0.018633 -0.00965076 -0.00808696
-0.00833764 -0.00483409 0.00539586
-0.00652356 -0.0225688 -0.0110635
-0.0048695 0.00418485 -0.000566049
-0.0167408 0.0107094 -0.0158742
-0.00951992 -0.011854 -0.00567111
-0.014115 -0.0147041 -0.020021
-0.0137313 -0.000626595 0.0101521
-0.024075 -0.00799701 0.00544004
0.00448248 -0.00819636 -0.00963543
-0.00371306 -0.0115116 -0.0224728
-0.00389154 0.00288982 0.00478542
-0.0105136 0.0205994 -0.00617472
-4.66668e-06 2.32964e-06 0.0287639
-0.00509153 -0.0127256 0.0216993
0.00540574 -0.01431 0.0123289
0.00212238 -0.0234712 -0.00019357
-1.40001e-06 6.98892e-07 0.0287851
-0.0195707 0.0027922 0.0205944
0.00500527 -0.0102155 0.0148606
0.0130006 -0.0126765 -0.00114819
0.00269569 -0.00551282 0.0212238
-0.00707649 -0.0232337 0.00714256
0.0184144 0.00225049 0.00403147
0.0251391 0.00549285 -0.0119062
-0.00836249 0.0135117 0.0160217
-0.0184418 0.0214619 0.00252433
0.00502618 0.0171572 0.00501075
0.00519782 0.0220985 -0.0133159
-0.00923053 0.00504738 -0.00722175
-0.0131251 -0.00223724 -0.0185839
0.00503626 -0.0185057 0.00340658
0.00690049 -0.021442 -0.00880297
0.00357333 -0.00729985 0.0188058
0.0159781 -0.0134293 0.0139404
-0.0147426 0.015316 0.010008
-0.0225093 0.0131413 0.00611352
0.014732 0.00116854 0.0123381
0.0272163 -0.00379817 0.00826582
-4.20002e-07 2.09667e-07 0.0287914
0.00973172 -0.0045272 0.0267061
-0.0182734 0.000870671 0.00225155
-0.0193581 -0.000277118 -0.00762337
0.010827 -0.0134421 0.00336613
0.0166597 -0.0189263 -0.00789527
0.00302013 0.00631394 0.0192712
0.016 0.0154644 0.0148323
-1.26e-07 6.29002e-08 0.0287933
0.00117823 0.016144 0.0229894
-0.00367359 -0.00552484 0.0248555
-0.0164009 -0.0149307 0.0144711
-2.51144e-05 0.00915107 -0.0155717
0.00620662 0.00988712 -0.0246007
0.00457569 -0.00934083 0.0160441
-0.000838715 -0.0125973 0.00251871
-0.0197183 0.00028484 -0.00320735
-0.0258825 -0.000444362 -0.0120533
0.0100359 0.0130949 0.00542472
0.00830126 0.0116033 -0.00509982
0.0103438 -0.00197349 -0.00838403
0.0241944 -0.00768611 -0.0130833
0.0148364 -0.00443533 -0.0110612
0.0157218 -0.00854084 -0.018444
-0.00692767 0.0165092 -0.00273994
-0.00527479 0.026231 -0.00643354
-0.00619422 0.00744677 0.0216547
-0.0184004 0.0116116 0.0180566
0.00492409 0.0100275 0.0142586
0.00938578 0.0200575 0.0123822
-0.0109006 0.00317412 -0.012498
-0.0136489 0.00571582 -0.0229964
-0.00151715 0.000757372 0.0189913
-0.014174 0.00684094 0.00860423
-0.0143838 0.0090684 -0.0103506
-0.0211978 0.014555 -0.01098
0.00317438 0.0103177 -0.0185799
0.0108101 0.0160644 -0.0196454
-0.0152804 -0.0156043 -0.000869986
-0.0192321 -0.019083 -0.00694784
-0.00840527 0.0179708 0.013496
-0.00564231 0.0262687 0.00518675
0.0135271 0.0145334 0.00072639
0.0151345 0.0156584 -0.0104841
-0.0039304 0.00455799 -0.00415683
0.000328114 0.0144825 -0.0108391
0.00999606 0.0118305 0.00117342
0.0130966 0.00694005 -0.00464439
0.0110833 0.0135265 0.00401522
0.0217995 0.0122962 0.00245474
0.00133579 0.0110427 0.0236816
0.00342432 0.0209879 0.0171704
0.0129458 0.0013548 0.0143837
0.0230383 0.00772305 0.00762364
-0.012067 0.00853484 0.0193154
-0.0246024 0.00718652 0.0118845
-0.015094 -0.000177415 0.00778196
-0.0281664 0.0033591 0.00450421
0.00188232 -0.00385664 0.0234647
0.00847406 -0.00253295 0.00991243
-0.0044614 -0.0188472 0.00850637
-0.00611302 -0.0227571 -5.62777e-05
-0.0126249 -0.0097384 0.0184009
-0.021097 -0.00982371 0.0136711
-0.00758498 0.0134534 -0.00135143
-0.0174781 0.0209483 -0.00733517
-0.00792222 0.00478862 -0.00522504
-0.00964919 0.0167739 -0.0195685
-0.00249658 0.00124631 0.012663
0.0018574 0.00673401 0.00555297
-0.00567758 0.00518958 0.013814
-0.00552709 0.0113722 0.0094042
0.00662195 -0.0026641 -0.00405466
0.00370457 -0.000733761 -0.0104857
0.00461748 -0.0195865 -0.00135114
-0.00155037 -0.0205627 -0.00703015
0.00295898 -0.00604893 0.0204984
0.0100558 -0.0165547 0.0195789
0.00394357 0.0206981 -0.00271527
0.00101261 0.0255678 -0.00687364
0.0150113 -0.0146119 -0.002042
0.0207714 -0.0129194 -0.00629601
0.0206676 0.00469932 -0.00542756
0.0187762 0.00729075 -0.0115363
0.00177624 -0.00844328 -0.017278
0.00184208 -0.00623659 -0.025927
0.00238689 -0.00147094 0.00486299
-0.00079643 -0.0108539 -0.00437279
-0.0114613 2.59292e-05 0.0224998
-0.0185646 -0.00309948 0.0156985
0.00975537 -0.00857774 0.0157246
0.0150194 -0.00660993 0.011972
-0.00861402 -0.00977053 -0.0036217
-0.00532929 -0.0105104 -0.0123759
0.00601145 -0.00127828 -0.00753282
0.00788764 0.00351182 -0.0164959
-0.00449363 -0.00953644 0.022681
-0.00679638 -0.020292 0.0154104
0.00894452 -0.0115506 0.00860746
0.0152617 -0.00984186 0.00549983
0.0119454 -0.00105731 -0.0148776
0.012261 -0.00308824 -0.0220797
-0.00245883 -0.0135658 0.0121042
-0.00805005 -0.0144586 0.00241198
0.012794 0.0142313 0.00171304
0.0134239 0.0212986 -0.00436389
-0.0189233 -0.00291621 0.00938343
-0.0234079 -0.00248628 0.0114457
0.00954036 0.0120993 -0.00243897
0.0100096 0.0141888 -0.012531
-0.00458777 0.00429679 -0.00164328
-0.00604333 -0.00498615 -0.0116608
-0.0055171 0.0203688 -0.00577649
-0.00330667 0.0219605 -0.0104188
-0.0083362 0.00867821 -0.0129273
-0.00792044 0.0084069 -0.0204386
-0.00831472 0.00486625 -0.00582405
-0.0150884 -0.00477516 -0.0123126
0.00314329 -0.00642421 0.0199906
0.00109175 -0.0169767 0.0176448
0.000450157 0.0126376 -0.0175702
0.00541344 0.0192209 -0.017931
0.00140115 0.00567007 0.00687137
0.00520391 0.00920587 0.00213582
0.00315298 -0.00939184 0.0101148
0.00413552 -0.00673173 0.00646104
-0.0103996 0.0037361 -0.0109151
-0.0191169 0.00175473 -0.0149438
0.00193566 -0.00820333 -0.00148644
0.00441343 -0.0147918 -0.00725837
-0.0160478 0.000137011 0.00612284
-0.0209333 -0.0052619 0.00130551
-0.00459034 -0.021108 0.00523183
-0.00219713 -0.027455 0.00163048
0.00423488 -0.00251334 -8.05605e-05
0.0147887 -0.00442393 -0.00339629
-0.0187069 0.000694922 0.000613884
-0.0280567 -0.00267236 -0.00489533
-0.0143853 -0.0120978 0.0159358
-0.0179173 -0.0165774 0.00837216
0.0127125 -0.0100539 0.0154411
0.018877 -0.00976521 0.0171402
-0.0119896 -0.0142693 -0.0106095
-0.0144015 -0.0180371 -0.0110083
0.0055259 0.0132804 0.00998049
0.00140788 0.013679 0.00377463
0.00273381 0.0140014 0.00573426
-0.00176943 0.0172061 -0.00128885
-0.0213416 0.00382362 0.000618194
-0.0251101 0.0136055 -0.00116024
-0.00842055 -0.00631502 0.00269059
-0.0116982 -0.00355607 -0.00349558
-0.0144959 -0.0019551 -0.0112404
-0.0207137 -0.00572229 -0.0158989
0.0108243 -0.00169864 -0.0103321
0.01632 0.0108204 -0.0194052
-0.000224653 0.00679406 0.0259086
-0.00570707 0.0146119 0.0238882
0.0052856 -0.0130817 0.0130884
0.00748839 -0.0227982 0.0148292
0.0222067 0.00237978 0.00102773
0.0266769 0.00465001 -0.00244382
-0.00654624 -0.00294965 -0.0103244
-0.00908705 -0.00566974 -0.0154745
0.00109469 -0.00074205 0.00831975
0.00729323 0.00233805 0.00227688
-0.00701197 -0.00439535 -0.0126978
-0.00497277 -0.00803016 -0.017345
0.0157656 -0.00678014 -0.013736
0.0197659 -0.0132662 -0.0159285
-0.020047 -0.00380919 0.00244391
-0.0268163 -0.00838265 -0.00260637
-0.00622911 -0.0209721 0.00733808
-0.0120445 -0.0255655 0.00279164
-0.0109311 0.0147779 0.011958
-0.0107595 0.0180451 0.0020293
0.00301053 -0.00875753 -0.012313
-0.000812238 -0.0117285 -0.0140213
-0.00499957 0.0060589 0.00294437
-0.000407698 0.0111758 -0.000260716
0.00466295 -0.0138872 -0.0160336
0.00162997 -0.0174086 -0.0215224
-3.78001e-08 1.88701e-08 0.0287939
0.0137119 0.00402734 0.0230262
-0.0226616 -0.00496169 0.00655107
-0.0278587 -0.00586652 0.00264792
-0.000956709 0.00786851 -0.0130649
-0.000367911 0.00561071 -0.0188612
0.00880343 -0.00468353 -0.00202868
0.011505 -0.00862637 -0.00419609
-0.00433166 -0.014991 0.0202622
-0.0019414 -0.0197981 0.0202743
-0.017483 0.0103915 -0.0108375
-0.0233796 0.00793816 -0.0126142
-0.00814265 0.00687499 -0.00777469
-0.00869831 0.0121899 -0.00858256
LINES 259 777
2 184 1
2 132 2
2 102 3
2 8 4
2 244 5
2 10 6
2 18 7
2 6 8
2 212 9
2 12 10
2 106 11
2 22 12
2 104 13
2 198 14
2 164 15
2 92 16
2 52 17
2 6 18
2 224 19
2 108 20
2 20 21
2 38 22
2 40 23
2 26 24
2 24 25
2 2 26
2 30 27
2 36 28
2 98 29
2 156 30
2 206 31
2 96 32
2 248 33
2 14 34
2 148 35
2 2 36
2 88 37
2 42 38
2 160 39
2 222 40
2 56 41
2 64 42
2 152 43
2 78 44
2 68 45
2 122 46
2 236 47
2 62 48
2 146 49
2 90 50
2 60 51
2 208 52
2 142 53
2 180 54
2 94 55
2 40 56
2 138 57
2 182 58
2 204 59
2 238 60
2 60 61
2 116 62
2 62 63
2 72 64
2 64 65
2 194 66
2 80 67
2 162 68
2 144 69
2 10 70
2 70 71
2 246 72
2 114 73
2 38 74
2 202 75
2 250 76
2 100 77
2 58 78
2 188 79
2 200 80
2 80 81
2 16 82
2 172 83
2 136 84
2 86 85
2 84 86
2 232 87
2 128 88
2 176 89
2 12 90
2 118 91
2 70 92
2 92 93
2 190 94
2 94 95
2 8 96
2 134 97
2 54 98
2 256 99
2 76 100
2 100 101
2 24 102
2 102 103
2 50 104
2 104 105
2 168 106
2 106 107
2 174 108
2 108 109
2 82 110
2 110 111
2 82 112
2 112 113
2 220 114
2 114 115
2 18 116
2 116 117
2 90 118
2 118 119
2 32 120
2 120 121
2 22 122
2 122 123
2 166 124
2 196 125
2 74 126
2 126 127
2 242 128
2 128 129
2 28 130
2 178 131
2 4 132
2 186 133
2 96 134
2 134 135
2 14 136
2 158 137
2 56 138
2 138 139
2 46 140
2 140 141
2 52 142
2 142 143
2 68 144
2 144 145
2 48 146
2 146 147
2 240 148
2 148 149
2 228 150
2 192 151
2 42 152
2 152 153
2 58 154
2 154 155
2 214 156
2 156 157
2 136 158
2 158 159
2 74 160
2 254 161
2 44 162
2 162 163
2 218 164
2 164 165
2 46 166
2 166 167
2 112 168
2 168 169
2 32 170
2 170 171
2 110 172
2 172 173
2 28 174
2 226 175
2 88 176
2 176 177
2 258 178
2 178 179
2 130 180
2 216 181
2 140 182
2 182 183
2 76 184
2 184 185
2 132 186
2 186 187
2 78 188
2 188 189
2 54 190
2 190 191
2 150 192
2 192 193
2 120 194
2 234 195
2 124 196
2 196 197
2 150 198
2 252 199
2 66 200
2 200 201
2 126 202
2 202 203
2 154 204
2 204 205
2 30 206
2 206 207
2 16 208
2 210 209
2 208 210
2 210 211
2 66 212
2 212 213
2 26 214
2 214 215
2 180 216
2 216 217
2 84 218
2 218 219
2 72 220
2 220 221
2 44 222
2 222 223
2 48 224
2 224 225
2 174 226
2 230 227
2 4 228
2 228 229
2 226 230
2 230 231
2 86 232
2 232 233
2 194 234
2 234 235
2 124 236
2 236 237
2 50 238
2 238 239
2 34 240
2 240 241
2 36 242
2 242 243
2 34 244
2 244 245
2 0 246
2 246 247
2 170 248
2 248 249
2 20 250
2 250 251
2 198 252
2 252 253
2 160 254
2 254 255
2 98 256
2 256 257
2 130 258
2 258 259
CELL_DATA 259
SCALARS radius float
LOOKUP_TABLE default
0.254611
0.82168
0.259707
0.95241
0.261425
1.05366
0.229804
1.01756
0.234155
1.11545
0.251468
1.14396
0.221431
0.613266
0.254466
0.578137
0.251949
0.487935
0.230672
0.4797
0.276559
1.21844
0.259847
0.374111
0.253563
0.51422
0.27258
0.699645
0.237895
0.389754
0.292092
0.549973
0.223471
0.452125
0.274652
0.748169
0.234797
1.23536
0.175882
0.41401
0.235557
1.24113
0.231927
0.525715
0.218157
0.669487
0.199214
0.420158
0.286443
0.433297
0.267508
0.383907
0.286422
0.461699
0.248929
0.376614
0.270439
0.586952
0.22077
0.331102
0.257908
0.447699
0.249665
1.24296
0.203846
0.440099
0.225822
0.373865
0.276072
0.601918
0.238428
1.25043
0.204019
0.424299
0.214062
0.427158
0.260665
0.551931
0.242628
0.323507
0.281646
0.48472
0.208639
0.483672
0.268457
0.382249
0.247507
0.363833
0.263134
0.477917
0.217284
0.58918
0.224313
0.325301
0.266833
0.57459
0.234651
0.364373
0.253717
0.34424
0.284723
0.330368
0.264672
0.309722
0.266153
0.329157
0.270354
0.49944
0.242135
0.360429
0.244811
0.406284
0.249596
0.290739
0.252423
0.470315
0.242712
0.302963
0.259869
0.504237
0.250096
0.67816
0.22775
0.397545
0.248228
0.353798
0.24613
0.406646
0.267221
0.560362
0.271858
0.831046
0.171085
0.285831
0.218503
0.517044
0.200232
0.342983
0.27399
0.606556
0.222266
0.343665
0.257587
0.347256
0.275161
0.354931
0.27681
0.350029
0.280913
0.654765
0.218056
0.298362
0.2415
0.324212
0.217097
0.419398
0.244202
0.292692
0.257363
0.317812
0.246926
0.397447
0.21915
0.324359
0.260355
0.425275
0.241505
0.372086
0.251205
0.336626
0.209613
0.317978
0.28467
0.550161
0.197777
0.327784
0.257121
0.329233
0.24984
0.508147
0.217903
0.59644
0.215198
0.333666
0.274317
0.267708
0.242034
0.28372
0.204525
0.368505
0.249963
0.300679
0.256195
0.482834
0.186858
0.324947
0.266915
0.632908
0.229677
0.372453
0.261148
0.308552
0.269467
0.287835
0.235656
0.338989
0.241207
0.429718
0.183403
0.283431
0.255094
0.322604
0.274731
0.437275
0.214297
0.320076
0.282081
0.385519
0.285094
0.326556
0.217209
0.435352
0.226042
0.308844
0.258058
0.347439
0.239739
0.661884
0.209961
0.32461
0.273353
0.331728
0.277383
0.301183
0.274998
0.305519
0.274181
0.372386
0.248477
0.377547
0.22193
0.424168
0.208561
0.337974
0.274744
1.25276
0.222105
0.307004
0.260981
0.446862
0.224343
0.283889
0.220794
0.298734
0.226396
0.326837
0.264865
0.355019
0.208463
