# vtk DataFile Version 3.0
Tree
ASCII
DATASET POLYDATA
POINTS 600 float
-0.0055 0.00425 -0.021013
-0.00725 0.00325 -0.020501
-0.0062525 0.00426 -0.0207122
-0.0075 0.00625 -0.019852
-0.00572575 0.004253 -0.0209228
-0.005 6.6e-05 -0.0195
-0.00556772 0.0042509 -0.0209859
-0.005254 0.00875 -0.019
-0.00552032 0.00425027 -0.0210049
-0.00125 0.0045 -0.01855
-0.00467224 0.00103736 -0.0195468
-0.003 -0.00125 -0.018041
-0.00718397 0.0049009 -0.0200365
-0.0105 0.005 -0.017545
-0.00690647 0.00350738 -0.0202055
-0.009 0.000832 -0.0175
-0.00483817 0.00809022 -0.0189295
-0.0035 0.01025 -0.017046
-0.00288813 0.00529583 -0.019098
-0.001 0.007699 -0.017
-0.00363579 0.00424482 -0.0195892
-0.000144 0.001 -0.01675
-0.00865259 0.00243919 -0.0181798
-0.01075 0.00275 -0.016063
-0.00904731 0.00580036 -0.018109
-0.010049 0.008 -0.016
-0.008737 0.00132519 -0.0176017
-0.008387 -0.0015 -0.01575
-0.00541901 0.00725097 -0.0190046
-0.00758 0.0095 -0.0155
-0.00797064 -0.00111394 -0.0162025
-0.0065 -0.00335 -0.01525
-0.00614664 0.00923039 -0.0167618
-0.005548 0.01175 -0.015
-0.00645826 -0.00265718 -0.015491
-0.00425 -0.00407 -0.01475
-0.00507402 0.0108166 -0.0155647
-0.003 0.012016 -0.0145
-0.00354406 -0.000592355 -0.0181577
-0.00175 -0.003578 -0.01425
-0.00325561 0.0111818 -0.0147859
-0.00095 0.01075 -0.014
-0.00170626 -0.00255961 -0.0150479
-5.6e-05 -0.0025 -0.01375
-0.00128179 0.0105513 -0.0141115
0.0005 0.009547 -0.0135
-0.000530042 -0.00203861 -0.014233
0.00108 -0.00075 -0.01325
-0.00145545 0.00667278 -0.0173421
0.001546 0.00775 -0.013
0.00113367 0.00678878 -0.0138068
0.002065 0.006 -0.01275
-0.00189919 -0.00324623 -0.01445
-0.003 -0.0055 -0.012316
-0.00987128 0.00638721 -0.0167193
-0.013001 0.00575 -0.01225
0.0006639 -0.000878533 -0.0134418
0.002354 0.001 -0.01225
-0.00515663 0.0114443 -0.014879
-0.00475 0.0135 -0.011756
-0.0101281 0.00257505 -0.0163694
-0.01275 0.002455 -0.01175
0.0018733 0.00606607 -0.0129799
0.003024 0.0045 -0.01175
-0.00247689 0.0112688 -0.0141438
-0.0015 0.013019 -0.0115
-0.0114156 0.00691488 -0.0137577
-0.01181 0.009 -0.01125
0.00133129 0.00753288 -0.0131998
0.00175 0.01025 -0.011027
-0.0113675 0.00146562 -0.0133878
-0.011558 -0.00125 -0.011
-0.00038783 -0.00217703 -0.0140881
0.001193 -0.003 -0.011
-0.0109756 -0.000807752 -0.0118851
-0.00975 -0.00355 -0.01075
0.00165141 0.00628289 -0.013228
0.00325 0.00725 -0.010528
-0.00686312 0.00955891 -0.0155445
-0.0085 0.011057 -0.0105
-0.0125766 0.00621595 -0.0122312
-0.01375 0.00575 -0.010029
-0.00299859 -0.0044287 -0.0131151
-0.007 -0.006058 -0.01025
0.00272289 0.00476813 -0.0119423
0.00375 0.0025 -0.010049
-0.00409932 -0.00553969 -0.0115029
-0.0035 -0.007 -0.009813
-0.0121292 0.00174672 -0.0123053
-0.013352 0.001 -0.00975
-0.00266877 -0.00407396 -0.0135156
-0.00075 -0.005578 -0.00975
-0.0114676 0.00875276 -0.0115625
-0.011038 0.0105 -0.0095
0.00115333 -0.00238665 -0.0115682
0.002858 -0.00175 -0.0095
-0.00761939 0.0111015 -0.0113607
-0.006758 0.0125 -0.00925
0.00308845 0.00659052 -0.0109796
0.0045 0.006 -0.009055
-0.00468412 0.0129122 -0.0119837
-0.00405 0.01375 -0.009
-0.0134206 0.00544638 -0.0104955
-0.01425 0.004 -0.008549
-0.00365965 0.0136341 -0.0101235
-0.00175 0.014533 -0.00875
-0.0130051 0.00623137 -0.0111013
-0.013527 0.00825 -0.0085
-0.00192082 0.0139542 -0.00922939
0.000368 0.01375 -0.0085
-0.0128343 0.000808687 -0.010295
-0.01325 -0.00075 -0.008046
-0.000720504 -0.00519519 -0.0102099
0.001 -0.0055 -0.008165
-0.0128037 -0.000724885 -0.00893271
-0.01225 -0.002887 -0.008
0.00168902 0.00957578 -0.011191
0.00225 0.0125 -0.007888
-0.0105303 -0.00235445 -0.0109089
-0.010859 -0.005 -0.00775
0.00200952 -0.00255847 -0.0100027
0.00275 -0.003546 -0.00775
-0.0110386 0.0101509 -0.00959999
-0.010549 0.01125 -0.0075
0.00248481 0.0108403 -0.00910057
0.00389 0.01075 -0.0075
-0.0103996 -0.00476939 -0.00836814
-0.0095 -0.006444 -0.00725
0.00249932 -0.00264192 -0.00900911
0.00408 -0.00125 -0.00725
-0.0075451 0.0116143 -0.0101803
-0.00875 0.012067 -0.007
0.00353275 0.0103034 -0.00812828
0.005023 0.009 -0.007
-0.00943984 -0.00617736 -0.00755725
-0.008 -0.007884 -0.00675
0.00372829 -0.00124677 -0.00781364
0.005082 0.00075 -0.00675
-0.00772736 0.0121471 -0.00813212
-0.006819 0.013 -0.0065
0.00408371 0.00642893 -0.00952486
0.005862 0.00725 -0.0065
-0.005185 -0.00616408 -0.0104292
-0.00626 -0.009 -0.00625
0.00520949 0.00629157 -0.00763994
0.006072 0.005 -0.00625
-0.00390167 0.013706 -0.00942692
-0.004549 0.01375 -0.006
0.00570014 0.00524038 -0.00681268
0.006065 0.00275 -0.006
-0.00529505 -0.00862454 -0.00691763
-0.0045 -0.009524 -0.00575
-0.0134274 0.00674401 -0.00961479
-0.015015 0.006 -0.0055
-0.00373007 0.0138724 -0.00723077
-0.002549 0.01425 -0.0055
-0.0146457 0.00561856 -0.00641755
-0.015057 0.004 -0.00525
-0.00486773 -0.00804778 -0.00763229
-0.002455 -0.00925 -0.00525
-0.0148925 0.00415742 -0.00564702
-0.015057 0.00225 -0.005
-0.00251771 0.0141846 -0.00605231
-0.00075 0.014556 -0.005
-0.0131307 0.000316406 -0.00915087
-0.01501 0.00025 -0.00475
-0.00255666 -0.00877359 -0.00568175
-0.00075 -0.008579 -0.00475
-0.0143004 0.00622083 -0.00701235
-0.014529 0.00775 -0.0045
-0.00101038 -0.00842471 -0.0050527
0.000901 -0.00775 -0.0045
0.00448183 -0.000568093 -0.00702867
0.0065 -0.00025 -0.004258
-0.0139354 -0.000633438 -0.00637035
-0.013857 -0.003 -0.00425
-0.0010385 0.0143777 -0.00529511
0.00125 0.014556 -0.00425
0.00284836 -0.00311115 -0.00800287
0.004509 -0.00425 -0.00425
-0.0141562 0.00769833 -0.00536494
-0.013524 0.00975 -0.004
-0.0101127 -0.00571446 -0.00745025
-0.01075 -0.008 -0.003839
0.00339198 -0.00435446 -0.00568115
0.002892 -0.00625 -0.004
0.00363992 0.0104373 -0.00793979
0.00525 0.012 -0.003835
-0.0136581 -0.0028027 -0.00478851
-0.013057 -0.005 -0.00375
0.00397597 0.0119478 -0.00545312
0.003 0.014046 -0.00375
0.00563634 0.00692953 -0.00675789
0.007 0.009 -0.003538
-0.0132801 0.00942773 -0.00440598
-0.01175 0.01153 -0.0035
0.00410494 -0.00405827 -0.00487489
0.005692 -0.0025 -0.0035
-0.0109661 -0.00691863 -0.00477172
-0.01225 -0.00675 -0.003043
-0.00566173 -0.00876721 -0.00666393
-0.008 -0.0105 -0.003047
0.0061786 9.36578e-05 -0.00464072
0.007082 0.00125 -0.00325
-0.0117611 0.0111289 -0.00364991
-0.010041 0.0125 -0.003
0.00502039 0.0116675 -0.00424845
0.00625 0.010887 -0.003
0.0063164 0.00725342 -0.00536241
0.007864 0.00525 -0.003
-0.00752027 0.0125047 -0.00693795
-0.008 0.013056 -0.00275
0.00630073 -3.69322e-05 -0.00449529
0.006858 -0.001 -0.00275
-0.0107906 -0.00778378 -0.00397799
-0.0105 -0.009159 -0.0025
-0.00405897 0.0137959 -0.00623615
-0.0045 0.013562 -0.0025
0.0069542 0.00795137 -0.00397713
0.007813 0.00775 -0.0025
-0.00709106 -0.0103641 -0.0036919
-0.006758 -0.0115 -0.00225
0.00358699 -0.00520014 -0.00431695
0.004517 -0.00575 -0.00225
-0.0147565 0.00573299 -0.00614228
-0.015528 0.00525 -0.002
-0.00642563 -0.0110248 -0.00283431
-0.005 -0.01175 -0.001865
0.00382082 0.0127316 -0.00447596
0.00475 0.0135 -0.001758
-0.015289 0.00470456 -0.00325553
-0.015556 0.00275 -0.00175
-0.00508025 -0.0114008 -0.00222053
-0.00325 -0.011539 -0.00175
0.00704298 0.00852131 -0.00351722
0.0075 0.01 -0.001539
-0.0144251 -0.000376228 -0.00525101
-0.015361 -0.0005 -0.0015
-0.00397415 0.0137565 -0.00311668
-0.003 0.014056 -0.0015
-0.00167623 -0.00885109 -0.00489818
0.00075 -0.01 -0.001298
0.00739644 0.00535137 -0.00352497
0.008405 0.00275 -0.0015
-0.014268 0.00771383 -0.00510546
-0.014529 0.00825 -0.00125
-0.000850492 -0.0098392 -0.00272463
-0.0015 -0.011067 -0.00125
0.00511669 -0.00352797 -0.00352995
0.006358 -0.0035 -0.00125
-0.0149204 -0.00109039 -0.00256032
-0.014857 -0.00275 -0.001
-0.00435067 0.0137383 -0.0036626
-0.0065 0.013551 -0.001
-0.000240215 0.0143828 -0.00441161
0.00025 0.01407 -0.001
0.00675805 0.000555265 -0.00364427
0.008059 0.0005 -0.001
-0.0135452 -0.00373859 -0.00394272
-0.014011 -0.00525 -0.00075
0.000583131 0.0141667 -0.00202172
0.002 0.014058 -0.00075
0.00755026 0.00766159 -0.00289016
0.008574 0.0065 -0.00075
-0.0140314 0.00863843 -0.00227375
-0.01305 0.01025 -0.0005
0.000562563 -0.00972568 -0.00164521
0.002367 -0.00925 -0.0005
0.00818246 0.00428055 -0.00202999
0.009051 0.0045 -0.0005
-0.0134716 -0.00529336 -0.00188709
-0.01275 -0.007564 -0.00025
-0.00736374 -0.0104049 -0.00349843
-0.0095 -0.0115 -4.9e-05
0.00404864 -0.00579356 -0.00285879
0.004028 -0.00775 -0.00025
-0.01541 0.00486682 -0.00236032
-0.015556 0.0045 -0
-0.0123535 0.0105193 -0.00346403
-0.011327 0.012 -0
0.00417266 0.0134006 -0.00213551
0.00375 0.014023 -0
-0.0154492 0.00346182 -0.00179221
-0.015556 0.0025 0.00025
-0.0093764 -0.0106976 -0.0010691
-0.0115 -0.009886 0.00025
-0.000958751 -0.0105014 -0.00176364
0 -0.0115 0.000453
0.00434586 0.0134304 -0.00202225
0.006402 0.0125 0.00025
-0.0151282 -0.000918332 -0.00184559
-0.015555 -0.001 0.0005
-0.0110952 0.0118062 -0.00096849
-0.009326 0.013 0.0005
0.00441229 -0.00661742 -0.00108352
0.005371 -0.0065 0.0005
0.00856642 0.00409052 -0.00124589
0.00925 0.0025 0.00062
-0.00851427 -0.010857 -0.00166469
-0.00825 -0.012568 0.00075
0.00592308 -0.00386119 -0.00160198
0.006578 -0.00475 0.00075
-0.0153959 0.00503143 -0.00125259
-0.015028 0.00675 0.001
-0.00619416 0.0135901 -0.00107902
-0.00725 0.01353 0.001
0.00621597 0.0125133 -2.29012e-05
0.0075 0.01175 0.001223
-0.0149386 -0.00215616 -0.000994129
-0.015058 -0.003 0.00125
-0.00784457 -0.0122882 0.000117299
-0.0065 -0.013524 0.00125
0.00659631 -0.00397448 -5.07913e-05
0.007579 -0.00325 0.00125
-0.0148705 -0.00322246 0.000422348
-0.014559 -0.005 0.0015
-0.00552924 0.0136255 -0.00141553
-0.005 0.013557 0.0015
0.00415007 -0.00738239 -0.000407833
0.0035 -0.00925 0.001659
0.00743394 0.00917587 -0.00212243
0.008693 0.0095 0.0015
-0.0137624 0.00915917 -0.00123151
-0.014003 0.00925 0.00175
-0.00647783 -0.0130397 0.000936919
-0.0045 -0.01356 0.00175
0.0053912 0.0129374 -0.000460609
0.005 0.01325 0.001849
0.00771734 0.000386527 -0.00149925
0.009069 0 0.00175
-0.0134464 -0.00632793 -0.000405803
-0.014 -0.007042 0.002
-0.00465169 0.0135844 0.000473789
-0.003 0.013557 0.002
0.00519351 -0.0065061 0.000186989
0.0065 -0.00625 0.002223
0.00836148 0.00712756 -0.00100728
0.00957 0.00675 0.002
-0.0135114 -0.00730461 0.00110768
-0.013046 -0.009 0.00225
-0.000909363 -0.0111558 -0.000603239
-0.002455 -0.01325 0.00225
0.00738759 -0.00317775 0.00090562
0.00858 -0.00175 0.00225
-0.0153716 -0.000684883 -0.000228604
-0.015556 0.001 0.0025
-0.0133407 0.0097664 0.000528875
-0.01205 0.01125 0.0025
-0.00310068 0.0135688 0.00152952
-0.001 0.01356 0.0025
0.00916647 0.00736082 0.00117767
0.00951 0.0085 0.0025
-0.0106907 -0.0104551 0.000316833
-0.01225 -0.010527 0.00275
-0.00108169 -0.0120348 0.00102045
-0.0002 -0.0125 0.00275
0.00885711 0.000543689 0.00099024
0.009857 0.0015 0.00275
-0.0153112 0.00546752 -4.90277e-05
-0.0155 0.004832 0.003
-0.0110815 -0.0110029 0.00165208
-0.01075 -0.01235 0.003
0.00361437 0.0135905 -0.000839949
0.001 0.013557 0.003
0.00943308 0.00688652 0.00172061
0.010062 0.0055 0.003
-0.0120427 0.0110552 0.00207924
-0.010549 0.01225 0.00325
-0.000147213 -0.0120129 0.00205981
0.0015 -0.011558 0.00325
0.00704975 -0.00376919 0.000746064
0.007857 -0.0045 0.00325
-0.0154822 -0.000233953 0.00168856
-0.015556 -0.001 0.0035
-0.00799863 -0.0123945 0.000357725
-0.00925 -0.013558 0.0035
0.00259817 0.0135428 0.00210817
0.003 0.0135 0.003528
0.00816606 0.00983028 0.000900821
0.00825 0.01105 0.0035
-0.0148705 -0.00322246 0.000422348
-0.015542 -0.003 0.00375
-0.00700599 0.0134895 0.00049102
-0.00875 0.013056 0.00375
0.00370823 -0.00885295 0.00141775
0.003315 -0.0105 0.00375
0.00925208 0.000690776 0.0018803
0.00975 -0.00025 0.003954
-0.0151259 -0.00378899 0.00248894
-0.015015 -0.0055 0.004
-0.0083758 -0.0134494 0.00263447
-0.007558 -0.0145 0.004
0.00393999 -0.00928942 0.00270052
0.004873 -0.009 0.004
0.00989844 0.00567553 0.00266589
0.010556 0.00375 0.004
-0.0136857 0.00934468 0.00137954
-0.014528 0.00775 0.00425
-0.0074924 0.0133697 0.00258641
-0.00675 0.013557 0.00425
0.0031738 0.01348 0.00161204
0.00475 0.013002 0.00425
0.00964944 0.00661044 0.00232995
0.010081 0.00725 0.00425
-0.0137623 -0.00726106 0.00182353
-0.014361 -0.0075 0.0045
-0.0074443 -0.0140971 0.00348455
-0.00575 -0.014862 0.0045
0.00470174 0.0129444 0.00347585
0.006379 0.01225 0.0045
-0.0154695 0.00475157 0.00275823
-0.015553 0.004 0.00475
-0.0138334 -0.00801531 0.00328529
-0.013503 -0.00975 0.00475
-0.00478405 0.013574 0.000863749
-0.00475 0.013557 0.00475
0.00592575 -0.00653512 0.0017013
0.006411 -0.0075 0.00475
0.00956879 0.000585058 0.00284196
0.010554 0.00175 0.00475
-0.0138697 0.00887787 0.00331181
-0.01338 0.0095 0.005
-0.00586772 -0.014474 0.00423382
-0.00375 -0.014569 0.005
0.00654058 -0.00662405 0.00360052
0.007567 -0.00575 0.005
-0.0155125 0.000411968 0.00240625
-0.015556 0.002 0.00525
-0.0115833 -0.010944 0.00245223
-0.012412 -0.0115 0.00525
-0.0041309 0.0135624 0.0036464
-0.0025 0.013557 0.00525
0.00808314 0.0106681 0.00315826
0.00775 0.01108 0.00525
0.00995504 0.00662766 0.00328643
0.011 0.0055 0.005459
-0.0125395 0.0105964 0.00201552
-0.012346 0.011 0.0055
-0.00154605 -0.0126476 0.00197956
-0.00175 -0.014068 0.0055
0.00743811 -0.00567962 0.00458021
0.008573 -0.00425 0.0055
-0.0155351 0.000607744 0.004025
-0.015556 -0.00025 0.00575
-0.0117552 -0.0117116 0.00427089
-0.01125 -0.01305 0.00575
-0.00259236 0.0135021 0.00474856
-0.0005 0.013353 0.00575
0.00832991 0.0105872 0.00438597
0.00925 0.010026 0.00575
-0.015365 -0.00326926 0.00352274
-0.015556 -0.0025 0.006
-0.011961 0.0111632 0.00452497
-0.01075 0.012044 0.006
-0.00118074 -0.0134544 0.00451346
5e-05 -0.0135 0.006
0.00961845 -3.73157e-05 0.00358434
0.009574 -0.00225 0.006
-0.0142622 0.00811521 0.00405153
-0.015028 0.00625 0.00625
-0.00880744 -0.0136258 0.00337434
-0.009773 -0.0145 0.00625
0.00255292 0.0134631 0.00307138
0.0015 0.013056 0.00625
0.0100303 0.0070644 0.00396149
0.01025 0.008547 0.00625
-0.0154486 -0.00349925 0.00501896
-0.0155 -0.00475 0.006743
-0.0107584 0.0118893 0.00554999
-0.00905 0.01275 0.0065
-0.000225256 -0.0133404 0.00543079
0.001864 -0.0125 0.0065
0.0038299 -0.00978576 0.00351581
0.004359 -0.0105 0.0065
0.0101644 0.00100402 0.00447678
0.01057 0.00075 0.0065
-0.015047 -0.00497426 0.00373524
-0.014903 -0.007 0.00675
-0.00889034 -0.0143099 0.00523974
-0.008 -0.01507 0.00675
0.00232693 0.0130454 0.00537284
0.00325 0.012553 0.00675
0.00985106 -0.00101493 0.00530589
0.0105 -0.001 0.006972
-0.0143852 0.0077053 0.00540473
-0.014045 0.00825 0.007
-0.00719862 0.0134567 0.00378657
-0.00725 0.013523 0.007
0.00519635 0.0126317 0.00424575
0.005 0.01205 0.007
0.0103546 0.00737195 0.00536152
0.011 0.006892 0.007
-0.0154747 0.00433017 0.00424354
-0.01525 0.00405 0.00725
-0.0122118 -0.0114498 0.00498103
-0.01375 -0.01025 0.007455
-0.0066903 -0.0144333 0.00427396
-0.006 -0.015556 0.00725
0.00452485 -0.00992144 0.00575506
0.005556 -0.00925 0.00725
0.0106847 0.00572085 0.00526526
0.011068 0.005 0.00725
-0.0135444 0.00926748 0.00462408
-0.01305 0.00975 0.0075
-0.00445473 0.0135602 0.00448388
-0.00525 0.013557 0.0075
0.00545119 0.0120121 0.00625864
0.006387 0.01125 0.0075
0.00747678 -0.00570073 0.00470615
0.00825 -0.006 0.007655
0.0104007 0.00117987 0.0054463
0.01107 0.00275 0.0075
-0.0129247 -0.0111911 0.00654801
-0.013 -0.011897 0.00775
-0.00565278 -0.015111 0.00643767
-0.003971 -0.01525 0.00775
0.00655143 -0.00705319 0.00449181
0.006868 -0.008 0.00775
-0.0154076 0.00363566 0.00649793
-0.015556 0.00225 0.008
-0.0115526 -0.0125375 0.00542898
-0.01186 -0.0135 0.008
-0.00430189 0.0135465 0.00643355
-0.003 0.013515 0.008
0.00849715 0.0104033 0.00526022
0.00775 0.010356 0.008
-0.015547 0.00018883 0.00535825
-0.015556 0.00025 0.00825
-0.0114824 0.0114295 0.00540523
-0.011549 0.01125 0.00825
-0.00144227 -0.0138015 0.00530294
-0.001951 -0.01475 0.00825
0.00430159 -0.0103099 0.00630548
0.00325 -0.01158 0.00825
0.00856139 0.00999902 0.00675491
0.009367 0.009 0.00825
-0.0155524 -0.000334468 0.0071633
-0.015556 -0.00175 0.0085
-0.00942462 -0.0144288 0.00604977
-0.0105 -0.014684 0.0085
-0.00180449 0.0133995 0.00554415
-0.001 0.013057 0.0085
0.00826521 -0.00548423 0.00694797
0.009188 -0.0045 0.0085
-0.0154817 -0.00397212 0.00614472
-0.015556 -0.00375 0.00875
-0.0110965 0.0116018 0.00725209
-0.010028 0.01225 0.00875
-0.00120123 -0.0141735 0.00721118
0 -0.014046 0.00875
0.00901964 -0.00447369 0.00794919
0.009905 -0.003 0.00875
-0.0155176 -0.00439885 0.00777789
-0.015525 -0.00575 0.009
-0.014585 0.00710863 0.00613629
-0.014573 0.00625 0.009
-0.00949382 -0.0148032 0.00746389
-0.00875 -0.015547 0.009
-0.000697437 0.0130266 0.00769413
0.001 0.012557 0.009
0.0104792 0.00731251 0.0063133
0.01 0.007873 0.009
-0.015316 0.00383354 0.00708628
-0.015057 0.00425 0.00925
-0.00997912 0.0122007 0.00829084
-0.008327 0.013 0.00925
0.000631899 -0.0130658 0.00625416
0.001868 -0.013 0.00925
0.0102312 -0.000971418 0.00657449
0.010573 -0.00075 0.00925
-0.0153898 -0.00566145 0.00855339
-0.015055 -0.00775 0.0095
-0.00861703 -0.0151925 0.00840267
-0.007 -0.015556 0.0095
0.00267039 0.0127682 0.00632248
0.003 0.012015 0.0095
0.00696898 -0.00770277 0.00752551
0.0075 -0.00775 0.009741
0.01051 0.00709129 0.00785038
0.011 0.006042 0.0095
-0.0134417 -0.010625 0.00731374
-0.014554 -0.0095 0.00975
-0.00490062 0.0135468 0.00718579
-0.00675 0.013528 0.00975
0.00398452 -0.0109095 0.00789219
0.004371 -0.011 0.00975
0.0107496 0.00157634 0.00714423
0.011073 0.00125 0.00975
-0.0144255 0.00715345 0.00813452
-0.014029 0.00825 0.01
-0.00514231 -0.0152109 0.00729072
-0.00525 -0.015556 0.01
0.00338453 0.0119892 0.00862319
0.00475 0.011062 0.01
0.0104432 -0.00124085 0.008673
0.0105 -0.00225 0.010247
-0.0139548 -0.01044 0.00891549
-0.014003 -0.01125 0.01025
-0.0053023 0.0135451 0.00865918
-0.00475 0.013557 0.01025
LINES 599 1797
2 14 1
2 4 2
2 12 3
2 6 4
2 10 5
2 8 6
2 16 7
2 0 8
2 18 9
2 4 10
2 38 11
2 2 12
2 24 13
2 2 14
2 26 15
2 28 16
2 16 17
2 20 18
2 48 19
2 8 20
2 20 21
2 14 22
2 60 23
2 12 24
2 54 25
2 22 26
2 30 27
2 6 28
2 78 29
2 26 30
2 34 31
2 28 32
2 58 33
2 30 34
2 34 35
2 32 36
2 40 37
2 10 38
2 52 39
2 36 40
2 44 41
2 38 42
2 72 43
2 64 44
2 44 45
2 42 46
2 56 47
2 18 48
2 68 49
2 48 50
2 62 51
2 42 52
2 82 53
2 24 54
2 80 55
2 46 56
2 56 57
2 36 58
2 100 59
2 22 60
2 88 61
2 76 62
2 84 63
2 40 64
2 64 65
2 54 66
2 92 67
2 50 68
2 116 69
2 60 70
2 74 71
2 46 72
2 94 73
2 70 74
2 118 75
2 50 76
2 98 77
2 32 78
2 96 79
2 66 80
2 102 81
2 90 82
2 142 83
2 62 84
2 84 85
2 82 86
2 86 87
2 70 88
2 110 89
2 52 90
2 112 91
2 66 92
2 122 93
2 72 94
2 120 95
2 78 96
2 130 97
2 76 98
2 140 99
2 58 100
2 146 101
2 106 102
2 102 103
2 100 104
2 108 105
2 80 106
2 152 107
2 104 108
2 108 109
2 88 110
2 114 111
2 90 112
2 112 113
2 164 114
2 114 115
2 68 116
2 124 117
2 74 118
2 126 119
2 94 120
2 178 121
2 92 122
2 122 123
2 116 124
2 186 125
2 118 126
2 134 127
2 120 128
2 136 129
2 96 130
2 138 131
2 124 132
2 132 133
2 182 134
2 134 135
2 128 136
2 172 137
2 130 138
2 210 139
2 98 140
2 192 141
2 86 142
2 200 143
2 140 144
2 148 145
2 104 146
2 216 147
2 144 148
2 148 149
2 158 150
2 150 151
2 106 152
2 224 153
2 146 154
2 162 155
2 168 156
2 160 157
2 142 158
2 166 159
2 156 160
2 160 161
2 154 162
2 176 163
2 110 164
2 236 165
2 158 166
2 170 167
2 152 168
2 244 169
2 240 170
2 170 171
2 136 172
2 212 173
2 164 174
2 188 175
2 162 176
2 254 177
2 128 178
2 196 179
2 168 180
2 194 181
2 126 182
2 214 183
2 178 184
2 222 185
2 132 186
2 206 187
2 174 188
2 258 189
2 186 190
2 228 191
2 144 192
2 234 193
2 180 194
2 204 195
2 184 196
2 248 197
2 182 198
2 198 199
2 150 200
2 272 201
2 172 202
2 256 203
2 278 204
2 204 205
2 190 206
2 206 207
2 192 208
2 242 209
2 138 210
2 210 211
2 202 212
2 212 213
2 198 214
2 214 215
2 154 216
2 238 217
2 208 218
2 262 219
2 200 220
2 226 221
2 184 222
2 274 223
2 156 224
2 276 225
2 220 226
2 232 227
2 190 228
2 288 229
2 224 230
2 282 231
2 226 232
2 232 233
2 218 234
2 320 235
2 174 236
2 290 237
2 252 238
2 238 239
2 166 240
2 266 241
2 208 242
2 268 243
2 180 244
2 264 245
2 240 246
2 286 247
2 196 248
2 300 249
2 236 250
2 308 251
2 216 252
2 304 253
2 176 254
2 260 255
2 202 256
2 328 257
2 188 258
2 270 259
2 254 260
2 260 261
2 218 262
2 336 263
2 244 264
2 322 265
2 246 266
2 266 267
2 242 268
2 296 269
2 258 270
2 330 271
2 220 272
2 284 273
2 222 274
2 318 275
2 230 276
2 302 277
2 194 278
2 292 279
2 228 280
2 362 281
2 230 282
2 282 283
2 298 284
2 352 285
2 246 286
2 340 287
2 280 288
2 306 289
2 250 290
2 344 291
2 278 292
2 292 293
2 274 294
2 334 295
2 268 296
2 296 297
2 272 298
2 374 299
2 248 300
2 312 301
2 276 302
2 358 303
2 316 304
2 382 305
2 326 306
2 306 307
2 250 308
2 380 309
2 298 310
2 324 311
2 300 312
2 342 313
2 308 314
2 314 315
2 252 316
2 414 317
2 294 318
2 384 319
2 234 320
2 378 321
2 264 322
2 396 323
2 310 324
2 324 325
2 288 326
2 326 327
2 256 328
2 356 329
2 270 330
2 404 331
2 316 332
2 348 333
2 294 334
2 416 335
2 262 336
2 364 337
2 330 338
2 338 339
2 286 340
2 438 341
2 370 342
2 342 343
2 290 344
2 426 345
2 322 346
2 366 347
2 332 348
2 348 349
2 336 350
2 350 351
2 284 352
2 428 353
2 340 354
2 368 355
2 328 356
2 386 357
2 302 358
2 410 359
2 352 360
2 360 361
2 280 362
2 376 363
2 350 364
2 394 365
2 436 366
2 366 367
2 354 368
2 368 369
2 312 370
2 370 371
2 344 372
2 372 373
2 310 374
2 460 375
2 400 376
2 462 377
2 320 378
2 432 379
2 314 380
2 450 381
2 304 382
2 398 383
2 318 384
2 472 385
2 356 386
2 456 387
2 380 388
2 476 389
2 374 390
2 406 391
2 384 392
2 392 393
2 402 394
2 394 395
2 346 396
2 458 397
2 382 398
2 486 399
2 362 400
2 408 401
2 364 402
2 464 403
2 338 404
2 412 405
2 390 406
2 422 407
2 400 408
2 488 409
2 358 410
2 492 411
2 404 412
2 412 413
2 332 414
2 504 415
2 334 416
2 516 417
2 386 418
2 474 419
2 396 420
2 502 421
2 496 422
2 422 423
2 416 424
2 508 425
2 372 426
2 442 427
2 360 428
2 494 429
2 414 430
2 446 431
2 378 432
2 448 433
2 402 434
2 500 435
2 346 436
2 452 437
2 354 438
2 530 439
2 424 440
2 440 441
2 426 442
2 526 443
2 428 444
2 520 445
2 430 446
2 540 447
2 432 448
2 524 449
2 388 450
2 466 451
2 436 452
2 468 453
2 438 454
2 470 455
2 418 456
2 482 457
2 420 458
2 554 459
2 390 460
2 538 461
2 376 462
2 480 463
2 434 464
2 490 465
2 450 466
2 544 467
2 528 468
2 468 469
2 454 470
2 566 471
2 392 472
2 532 473
2 418 474
2 510 475
2 388 476
2 476 477
2 460 478
2 478 479
2 462 480
2 574 481
2 456 482
2 568 483
2 458 484
2 484 485
2 398 486
2 486 487
2 408 488
2 506 489
2 464 490
2 560 491
2 410 492
2 562 493
2 444 494
2 580 495
2 406 496
2 514 497
2 472 498
2 498 499
2 434 500
2 500 501
2 420 502
2 502 503
2 430 504
2 582 505
2 488 506
2 506 507
2 440 508
2 542 509
2 474 510
2 586 511
2 494 512
2 512 513
2 496 514
2 590 515
2 424 516
2 576 517
2 492 518
2 518 519
2 444 520
2 520 521
2 504 522
2 522 523
2 448 524
2 534 525
2 442 526
2 536 527
2 452 528
2 546 529
2 454 530
2 548 531
2 498 532
2 584 533
2 524 534
2 534 535
2 526 536
2 536 537
2 478 538
2 556 539
2 446 540
2 558 541
2 508 542
2 550 543
2 466 544
2 552 545
2 528 546
2 564 547
2 530 548
2 548 549
2 542 550
2 550 551
2 544 552
2 570 553
2 484 554
2 588 555
2 538 556
2 572 557
2 540 558
2 558 559
2 490 560
2 578 561
2 518 562
2 562 563
2 546 564
2 564 565
2 470 566
2 566 567
2 482 568
2 594 569
2 552 570
2 570 571
2 556 572
2 572 573
2 480 574
2 592 575
2 516 576
2 576 577
2 560 578
2 578 579
2 512 580
2 596 581
2 522 582
2 598 583
2 532 584
2 584 585
2 510 586
2 586 587
2 554 588
2 588 589
2 514 590
2 590 591
2 574 592
2 592 593
2 568 594
2 594 595
2 580 596
2 596 597
2 582 598
2 598 599
CELL_DATA 599
SCALARS radius float
LOOKUP_TABLE default
0.078269
0.725289
0.100301
0.945839
0.0934107
1.00494
0.0964377
1.08123
0.109552
0.774523
0.0906258
0.578479
0.108498
0.572818
0.0862994
0.151135
0.136714
0.626836
0.0990016
0.629245
0.141801
0.57233
0.0883798
0.577472
0.110418
0.213177
0.106695
0.552579
0.0919821
0.208355
0.128715
0.548785
0.0841341
0.198577
0.17861
0.525089
0.106328
0.77407
0.0779362
0.220152
0.108262
0.773655
0.085163
0.178672
0.164297
0.600739
0.0960284
0.625718
0.0774475
0.624891
0.076449
0.626809
0.106138
0.576192
0.0896465
0.161668
0.149478
0.511859
0.0921056
0.562297
0.102823
0.176949
0.0986566
0.211553
0.155557
0.574837
0.0985654
0.469295
0.0942546
0.561568
0.109025
0.59681
0.0961385
0.31561
0.120909
0.520059
0.0974881
0.273675
0.12061
0.56621
0.102067
0.621205
0.118644
0.172058
0.160485
0.620171
0.124028
0.526151
0.0968107
0.626407
0.114136
0.203476
0.113197
0.596232
0.108677
0.270166
0.133613
0.513139
0.0978883
0.5111
0.0879836
0.159396
0.144008
0.510101
0.118632
0.56546
0.121301
0.177545
0.157769
0.524839
0.116246
0.182442
0.166139
0.166716
0.145226
0.468591
0.128053
0.311213
0.117004
0.595397
0.0888029
0.195454
0.181877
0.467316
0.0962562
0.305007
0.115756
0.594188
0.0964985
0.261904
0.149125
0.464089
0.134151
0.194237
0.179433
0.431981
0.120207
0.249758
0.144748
0.511964
0.0907955
0.618513
0.100312
0.510768
0.113417
0.502828
0.0964974
0.174857
0.157236
0.539908
0.121372
0.561206
0.102011
0.501929
0.1026
0.380457
0.108493
0.617054
0.0996764
0.17288
0.15727
0.267426
0.105615
0.523739
0.110739
0.426467
0.10215
0.559311
0.10004
0.166077
0.152043
0.43037
0.0934946
0.518046
0.102595
0.262295
0.152536
0.505502
0.105591
0.493103
0.104278
0.299156
0.130711
0.504587
0.119187
0.460322
0.120177
0.337914
0.130073
0.458915
0.134408
0.503844
0.0981047
0.275934
0.11665
0.301939
0.124969
0.268905
0.188987
0.537856
0.10654
0.427221
0.113501
0.19287
0.177446
0.18174
0.162197
0.502859
0.116985
0.230606
0.20977
0.155418
0.143205
0.233277
0.218707
0.475228
0.121512
0.478463
0.0988035
0.53669
0.118483
0.465617
0.107524
0.368165
0.104061
0.207878
0.125569
0.44921
0.104492
0.365536
0.130628
0.194163
0.174787
0.344638
0.123289
0.464845
0.10443
0.172549
0.149527
0.424645
0.119806
0.260234
0.163161
0.462434
0.122164
0.416002
0.12038
0.297571
0.118864
0.462741
0.107161
0.473898
0.0952127
0.256458
0.173892
0.420252
0.109615
0.334731
0.138351
0.237037
0.200499
0.40936
0.114748
0.460868
0.13189
0.192039
0.175035
0.252102
0.156496
0.328052
0.153489
0.526086
0.128061
0.462999
0.0987916
0.345834
0.1358
0.270877
0.161414
0.445163
0.126008
0.195567
0.173809
0.392052
0.125534
0.401888
0.138261
0.250671
0.124198
0.338737
0.119089
0.233317
0.204046
0.461058
0.0958752
0.226883
0.19871
0.524626
0.104002
0.290035
0.148663
0.342664
0.148893
0.289325
0.119103
0.209188
0.193439
0.391961
0.123485
0.438184
0.12835
0.283222
0.13495
0.389273
0.153631
0.466147
0.117768
0.348505
0.112102
0.341967
0.131445
0.457989
0.107472
0.199034
0.179363
0.244466
0.176047
0.417474
0.131073
0.319635
0.127175
0.425564
0.129574
0.381859
0.123686
0.407432
0.104706
0.307373
0.18568
0.398255
0.141878
0.226104
0.208788
0.335396
0.123326
0.454313
0.118375
0.209834
0.191871
0.404375
0.154314
0.387443
0.129582
0.392621
0.146911
0.41494
0.146438
0.335402
0.10483
0.383
0.154809
0.416914
0.162601
0.396741
0.126883
0.191914
0.175546
0.211045
0.183996
0.268852
0.198942
0.330315
0.159297
0.424045
0.112934
0.348345
0.13003
0.33654
0.130234
0.381127
0.113026
0.285846
0.177818
0.345838
0.142393
0.410533
0.120013
0.376756
0.136141
0.421949
0.126024
0.341866
0.157828
0.213929
0.197877
0.357162
0.120912
0.27878
0.155031
0.413041
0.144616
0.394295
0.116647
0.282888
0.203777
0.337411
0.135649
0.304368
0.173963
0.325321
0.140873
0.274047
0.229701
0.40783
0.116584
0.379834
0.125706
0.404226
0.149289
0.353889
0.129788
0.218252
0.199165
0.375411
0.112815
0.317473
0.177104
0.374376
0.11592
0.40453
0.131058
0.329718
0.169007
0.372075
0.148913
0.363951
0.147375
0.371141
0.133085
0.323655
0.179152
0.311144
0.14591
0.369128
0.150562
0.312397
0.177013
0.322802
0.17241
0.345051
0.165874
0.345216
0.141686
0.364097
0.149092
0.330928
0.177882
0.322266
0.163266
0.332353
0.12684
0.336111
0.170051
0.333823
0.181155
0.34096
0.16187
0.226465
0.206223
0.293629
0.196508
0.330264
0.127475
0.310063
0.169429
0.23144
0.214532
0.327949
0.175829
0.329495
0.161061
0.32558
0.148322
0.31649
0.177245
0.252214
0.230946
0.293071
0.195179
0.329006
0.173546
0.321651
0.149482
0.333449
0.152904
0.331446
0.169835
0.321194
0.195202
0.242777
0.222447
0.22139
0.205393
0.32931
0.144221
0.271022
0.231906
0.304214
0.170918
0.298069
0.199159
0.328712
0.181681
0.296307
0.196367
0.266859
0.152612
0.312379
0.224653
0.236453
0.214049
0.324365
0.193767
0.306555
0.220477
0.290704
0.207335
0.33602
0.179176
0.284184
0.2082
0.2951
0.209969
0.287178
0.234931
0.277895
0.232374
0.310153
0.192526
0.30451
0.195961
0.298952
0.184797
0.327337
0.189556
0.29748
0.171638
0.274101
0.226167
0.279031
0.24887
0.313572
0.177673
0.296754
0.205248
0.302914
0.186772
0.283102
0.247521
0.309574
0.221139
0.267514
0.250952
0.27401
0.24942
0.280213
0.243366
0.306821
0.205586
0.288537
0.264064
0.274387
0.241831
0.313647
0.211155
0.257217
0.237894
0.290208
0.238856
0.30906
0.231552
0.299452
0.230557
0.286947
0.243119
0.278574
0.239389
0.279271
0.235943
0.276401
0.238372
0.298798
0.258443
0.294802
0.256783
0.296044
0.238292
0.287858
0.22635
