# vtk DataFile Version 3.0
Tree
ASCII
DATASET POLYDATA
POINTS 34 float
0 0.0287941 0
-0.0126607 -0.0251748 0
0.00423547 0.00213237 0
0.0259787 -0.0201673 0
-0.00208886 0.02004 0
-0.0230888 0.017684 0
-0.000626657 0.0261679 0
0.0234609 0.0278788 0
-0.0113544 0.0154728 0
-0.0277715 -0.00803917 0
0.00440476 0.0102646 0
0.0248694 0.00521801 0
0.000584411 -0.0118647 0
0.00567841 -0.024451 0
-0.0213202 -0.0047847 0
-0.018803 -0.0165692 0
0.0163989 0.0241142 0
0.025768 0.016389 0
-0.0213376 -0.0122665 0
-0.0277377 -0.0287649 0
-0.000187997 0.0280062 0
-0.0109378 0.0282299 0
0.00143954 -0.00384173 0
-0.00660784 -0.00554711 0
-0.0170218 0.00741038 0
-0.0269212 0.00852779 0
0.0159869 -0.0152911 0
0.0151431 -0.0282376 0
0.014371 -0.00999766 0
0.0271084 -0.0110833 0
-0.013508 0.0124091 0
-0.00722621 0.00214039 0
0.0203776 0.00404537 0
0.0263683 -0.00329567 0
LINES 33 99
2 12 1
2 10 2
2 26 3
2 6 4
2 8 5
2 20 6
2 16 7
2 4 8
2 14 9
2 4 10
2 32 11
2 22 12
2 12 13
2 24 14
2 18 15
2 6 16
2 16 17
2 14 18
2 18 19
2 0 20
2 20 21
2 2 22
2 22 23
2 30 24
2 24 25
2 28 26
2 26 27
2 2 28
2 28 29
2 8 30
2 30 31
2 10 32
2 32 33
CELL_DATA 33
SCALARS radius float
LOOKUP_TABLE default
0.505423
0.847516
0.47626
1.08123
0.379068
1.1204
0.391855
0.791824
0.408114
0.915594
0.388525
0.613008
0.466075
0.686817
0.414964
0.522237
0.434909
0.634968
0.569344
1.1306
0.338422
0.657665
0.378212
0.726137
0.389061
0.612082
0.494999
0.68704
0.456269
0.761737
0.389558
0.54152
0.464389
