# vtk DataFile Version 3.0
Tree
ASCII
DATASET POLYDATA
POINTS 1300 float
34443.5 55443.5 6443.45
33438.5 52817.5 12801.5
33740 53605.3 10894.1
37151.5 52322.5 13543.5
33685 53001.8 12489
34181.5 52569.5 14038.5
34012.7 52716.5 13511.7
29726.5 49847.5 17256.4
30979 50825.4 15664.3
25270.5 48857.5 14038.5
36301.8 52269.6 13380.4
38636.5 49104.5 18245.4
33542 52894.9 12670.3
29230.5 51827.5 11563.5
32131.8 51544 14846.3
33191.5 49847.5 19730.4
29729.9 49916.9 16843.4
26261.5 47619.5 18741.4
38265.6 49746.7 16841.6
42843.5 45392.5 17998.4
26673.2 49111.6 14789.3
24280.4 46877.5 16265.5
32481.8 50234.8 18389.7
30468.5 48857.5 20968.4
38595.7 49216.4 18183.2
39378.5 48114.5 21711.4
33024.9 49944.7 19673.7
34181.5 49352.5 23443.4
28099.4 48734 18195.7
27745.5 47867.5 21215.4
38954.2 48603.3 20527.5
37398.5 49352.5 23196.4
41832 45983.1 17287.6
43585.5 42917.5 16018.5
39251.2 48261.2 21356.2
42348.5 46629.5 21711.4
43008.2 43433.3 16118.7
42843.5 40689.5 14286.5
41850.6 46591.1 21450.6
44328.5 44154.5 20968.4
24396 46948.7 16198.8
22300.4 44897.5 17503.4
37927.4 49097.8 22289
39625.5 48857.5 25175.5
30908.2 49229.4 20826.5
29726.5 48857.5 24928.4
33108.2 49896.1 19702.1
35913.5 49847.5 20226.4
33791.6 54502.2 8050.86
32193.5 53193.4 8693.45
22583.5 44853.1 17393.3
19083.4 39452.5 19978.4
24396 46948.7 16198.8
23538.4 45392.5 20968.4
27553.5 48006 20975.9
26756.5 47619.5 22948.4
43090.8 40932.2 14379.6
43585.5 39204.5 13048.5
43169.1 41465.7 15044.3
43833.5 39204.5 15276.5
37452.6 49277.6 23118
36160.5 49599.5 25423.5
20219.9 39850.1 19371.8
19578.4 33759.5 20721.4
42792.2 45665.2 21267.4
44576.5 44402.5 24185.4
19976.1 37535.7 19884.7
19330.4 35739.5 26413.5
43942.6 44377.1 21105.6
45070.5 41184.5 21711.4
19697.7 34892.4 20470.4
21558.4 29552.5 16760.4
43474.8 40425.5 15151.1
44576.5 39204.5 18741.4
19911.1 35833.8 25788.1
21311.4 34007.5 31363.5
39549.6 48654.8 24523.3
42843.5 46877.5 26908.5
41766.8 47397.3 26844.6
44328.5 45639.5 33096.5
19614.2 34099.4 20646.1
21063.4 30294.5 24928.4
21363.5 30689.3 24548.8
24528.4 26829.5 29136.5
39490 48761.4 25049.4
38388.5 49352.5 29383.5
38789.8 49123.6 29079.5
39130.5 48857.5 35570.5
38553.5 48998.6 34545.6
35666.5 49352.5 40768.5
24553 27086.1 28278.5
28488.5 23364.4 30621.5
26720.7 47770.2 22768.1
24280.4 47619.5 27155.5
24838.1 47566 26985.2
23043.4 47124.5 33343.5
39064.4 48712 35303.3
42843.5 45639.5 40025.5
21417.8 34598.1 30914.1
23785.4 34254.5 37055.5
23658.8 34823.8 36387.2
26508.5 36482.5 42500.5
23185.3 45633.3 20324
20815.4 44649.5 23691.4
24227.9 47415.9 29147
20073.4 42174.5 31115.5
23653.2 47145.5 32839.6
24776.4 46629.5 39036.5
23747.4 34425.3 36855
27498.5 30542.5 39283.5
30236.5 49015.4 23984.6
32200.5 49599.5 28145.5
43774.8 39265.9 15208.4
45070.5 33017.5 15028.5
22459.9 29626.6 26371.3
23043.4 30047.5 30373.5
25947 36727.6 41265.7
27993.5 41432.5 45470.5
44186.7 44513.6 24039.5
45566.5 42917.5 28145.5
45132.1 43084.3 26698.8
46555.5 36977.5 28888.5
41615.3 46399.8 39304.9
41358.5 45144.5 43985.5
28367 24150.4 29982.2
33438.5 21879.4 30868.5
26340 36556 42130.1
29726.5 32027.5 45966.5
31297 49330.8 26231.5
28736.5 49352.5 29630.5
32012.4 49540.3 27998.5
33191.5 49847.5 33838.5
42337.3 45640.2 39855.1
44823.5 39947.5 42995.5
43740.8 40915.2 41952.7
42595.5 34254.5 42500.5
43740.8 40915.2 41952.7
41606.5 37719.5 47946.5
27122 25305.5 29751.5
30468.5 25344.5 35570.5
44286.8 37186.3 15404.4
45813.5 34997.5 18741.4
44039.2 45256.1 32021.8
46061.5 41679.5 35570.5
43122.4 37318.4 42248.5
45318.5 33264.5 37055.5
25172.7 47093.6 37780
28241.5 48114.5 41758.5
42624.4 34746.6 42238.1
40863.5 28809.5 39778.5
44679.7 33443.3 37568.7
44943.4 29193.5 33193.4
45444.1 35849.2 18261.2
46555.5 36234.5 22700.4
24424.8 47354.5 34490.8
28488.5 50342.5 36313.5
44591 29364.9 33509
43585.5 24849.4 29383.5
21661 29800.3 17383.7
23785.4 25097.5 15276.5
30132.7 23240.3 29967.7
32943.5 20394.4 26166.5
23618.9 25785.7 16008.8
26693.5 20943.5 16443.5
44812.6 34101.7 14893.1
44576.5 31532.5 11563.5
21361.4 43599 30831.8
21558.4 41184.5 35076.5
43790 25481.1 29499.9
43338.5 22374.4 24928.4
24895.3 46768.7 38659.6
24280.4 41679.5 40273.5
44773.3 42187.5 21722.4
46061.5 40689.5 24681.4
20578.2 42451.9 31081.3
20568.4 38709.5 32106.5
43129.7 22628.9 25023.2
42348.5 20394.4 21215.4
23031.5 26990.1 16421.3
26013.5 23364.4 20968.4
24447.7 47603.5 27104.4
22053.4 46629.5 26166.5
20466 33106.2 18982.3
21558.4 33017.5 13543.5
44487.7 31776.2 36178.7
42348.5 28562.5 36560.5
26673.5 38103.3 42862.4
27993.5 37224.5 46955.5
20862.8 41068.2 18358.3
19578.4 37472.5 16513.4
45126.9 33318.2 37209.5
46308.5 34254.5 32353.5
36359.4 49059.5 40453.3
35666.5 48609.5 44976.5
41651.8 45002.4 43518.1
42443.4 42943.4 47443.4
38425.9 49249.6 29345.1
35913.5 49599.5 31115.5
43429.8 42296.4 41066.8
45813.5 38709.5 39036.5
27491.9 40167.4 44479.4
26756.5 44402.5 42995.5
21369.6 44774 22679.7
19083.4 42422.5 22948.4
22977.1 34996.8 34926.2
23043.4 38214.5 37798.5
42604.2 34402.1 42421.8
40121.5 32522.5 45470.5
20886.7 44598.4 23506.9
19578.4 43412.5 25175.5
32792.2 49939.3 33590.5
32943.5 50342.5 37551.5
23950.3 25876 18847.5
23785.4 26087.5 22453.4
27210.6 31283 39435.1
30221.5 29304.5 42253.5
23154.8 46203.8 29574.4
20568.4 45639.5 28393.5
20743.3 31721.5 22733.4
21806.4 28562.5 22453.4
36175.9 49509.4 25332.4
34923.5 49599.5 27403.5
45954.9 33689.9 33352.8
46061.5 32027.5 30126.5
22170 34529.1 32635.2
24033.4 31532.5 34581.5
21952 43656.2 17866.6
20568.4 43164.5 20226.4
42120.7 45868.1 39690
44823.5 44154.5 37798.5
43623.8 27167 31927.9
41110.5 24354.4 31611.5
46211 36427 21324.2
46555.5 38462.5 22700.4
21264.4 32817.5 15041.6
21806.4 29799.5 12801.5
27412.1 30764.7 39329
27003.5 28314.5 36313.5
45009.9 32238.3 12233.9
46308.5 31284.5 10078.5
23691.6 31896.7 33799.4
25023.5 29057.5 33591.5
39234.4 48919.3 28311.1
40615.5 48362.5 31363.5
21574.7 42449.6 33291.5
23043.4 43907.5 36560.5
31124.5 22832 30237.9
32200.5 23117.4 33591.5
31972.2 49725.6 30014.2
30221.5 50094.5 31611.5
27462.2 30635.8 39302.6
28983.5 28562.5 38788.5
40682.8 48336.8 31161.2
41853.5 47867.5 33096.5
25097.4 35058.8 39257.2
26508.5 33759.5 41758.5
45466.4 42809.2 27997.1
46061.5 41679.5 31115.5
26814.9 47871 39417.6
29230.5 50094.5 39530.5
26804.6 47774.9 22304.6
24528.4 46877.5 23443.4
19818 36866.8 23913.4
19083.4 38957.5 27155.5
28607.3 28879.7 38684.7
29230.5 26829.5 37055.5
30382.3 50029.6 31180.2
27993.5 50342.5 31611.5
28161.5 34846.3 44858.7
28983.5 34749.5 46708.5
19860.4 43450.5 25099.1
19083.4 41927.5 27155.5
41861.3 44156.1 45598.5
40943.4 44693.4 47443.4
45728.1 35083.7 18585.3
46308.5 32274.5 18741.4
27519.5 35290.3 43784.3
28488.5 32274.5 43738.5
45878.9 41970.6 29925.3
46555.5 39947.5 30373.5
42299.8 37580.5 45556.5
41853.5 35987.5 46461.5
42640.6 46921.7 26976.9
44328.5 45392.5 28145.5
41721.3 47816.8 33019.8
43091.5 46877.5 35818.5
43102.9 29528.6 36305.7
43193.4 27443.5 34693.4
19597.6 37494 24886
18588.4 39947.5 24681.4
30420.5 25337.5 35354.7
31458.5 25344.5 37055.5
46184.7 34264.8 32495.4
46308.5 35739.5 30868.5
37205 50779.4 15619
36160.5 50094.5 17750.4
20025.3 37711.6 16748.4
20073.4 35244.5 15771.5
33373.2 52317.8 13965.5
33933.5 51084.5 15771.5
26881.2 49132.8 34703.3
28241.5 50094.5 34085.5
29680.8 51807.6 12072.6
27745.5 51084.5 12306.5
33124.5 49872.1 33747.8
35913.5 49352.5 34828.5
42509.7 45943 21322.3
43338.5 45639.5 19730.4
45649.6 41967.8 34561.8
46555.5 38709.5 35076.5
43412.3 43072.2 16048.6
44081.5 42174.5 17256.4
44293.4 35121.1 38996.3
45813.5 35739.5 36066.5
44116.8 40275.8 16740.6
44823.5 40937.5 17750.4
20710 39765.8 32135.2
21558.4 37967.5 34581.5
22343.5 44398.3 17573.1
21063.4 43659.5 16513.4
20815.6 34183.6 28478.4
21311.4 32522.5 29630.5
36625.4 49432.3 24811.6
37398.5 49352.5 26908.5
45924.4 32196.3 31126.7
45318.5 29552.5 30126.5
45037.8 41366.4 21645.2
45813.5 39699.5 20721.4
42152.9 31046.4 39724.7
42348.5 30047.5 38540.5
20886.7 44598.4 23506.9
21063.4 45392.5 25423.5
43308.5 39914.8 43033.8
43091.5 40689.5 45470.5
20911.8 45108.8 25113.9
20321.4 44897.5 26908.5
42483 33636.5 41484.1
40615.5 31284.5 42500.5
35242.9 49576.5 27291.2
34923.5 49599.5 29383.5
42320.8 20402.8 21413.9
41853.5 19157.4 19483.4
46299.3 37245.1 28494.4
46555.5 35492.5 28888.5
29955.2 24813 33909.8
31211.5 23859.4 34828.5
46372.8 40320.4 30460.4
46555.5 38709.5 31858.5
31424.3 52103.4 13014.7
29973.5 51332.5 14038.5
32282 49929.5 32620.5
30963.5 50342.5 34581.5
28246.6 49588 15656.2
26756.5 48609.5 16760.4
23250.7 47131.7 33172.2
21806.4 45144.5 33096.5
26699.5 47792.5 18840.2
25765.5 46877.5 19978.4
33167.8 50132.1 36165.1
34923.5 49847.5 37551.5
36199.7 49473.3 25204.1
34428.5 49352.5 25918.5
44530.7 40500.7 40703.8
45318.5 38957.5 41510.5
22353.3 45368.3 21714.1
22300.4 46134.5 23691.4
43646.9 25038.9 29418.4
42100.5 24354.4 30126.5
19411.9 39418.4 19904.7
18588.4 38214.5 20968.4
23859 25178.2 15327.2
24528.4 23859.4 13791.5
42468.4 46898 28905.9
42348.5 47619.5 30373.5
24332.3 42218.4 39650.3
24033.4 39947.5 39530.5
41479.7 47920.1 32386.4
43091.5 46877.5 32600.5
24366.6 41768 40157.6
25270.5 40442.5 41510.5
39517.3 48847.3 32234.7
40368.5 48609.5 33343.5
25370 26543.4 28879.6
25765.5 26582.5 30868.5
35973.1 49506.8 30993.2
34181.5 49599.5 32106.5
32864.5 20898 27428.4
34428.5 19899.4 26908.5
46490.2 35627.6 28943.8
46555.5 34007.5 29630.5
28031.3 51061 12402.7
26756.5 50094.5 13048.5
39797.1 48038.8 36871.7
39378.5 48362.5 38788.5
29477.3 49241.2 27781.4
28488.5 49104.5 27898.5
21785.4 30177.7 25185
22300.4 28314.5 25175.5
35719.3 49209.4 34672.1
37151.5 48609.5 35076.5
24967.9 47843.2 15302.9
23785.4 47372.5 15028.5
37564.2 48799.4 38824.8
38140.5 48362.5 40273.5
21558.1 43627.9 18834.1
21806.4 44402.5 20226.4
43255.4 21638.7 22458.5
43833.5 21384.4 20721.4
20798.5 43210 19829.6
19826.4 41927.5 20226.4
26899.9 44304.3 43163.8
26756.5 45887.5 42748.5
19551.1 35775.3 26175.9
19330.4 36977.5 27155.5
34036 54021.7 9399.16
35666.5 53312.5 10573.5
45905 41789.1 35187.2
45070.5 42669.5 36808.5
38998.1 48833.2 19477.3
[...]
CELL_DATA 1299
SCALARS radius float
LOOKUP_TABLE default
64.547
74.6879
69.4326
69.4326
64.547
66.9452
46.4818
51.8578
43.2111
72.0123
51.8578
66.9452
55.7829
55.7829
43.2111
50
40.1706
55.7829
44.8166
44.8166
38.7315
50
43.2111
53.7845
44.8166
46.4818
41.6631
46.4818
38.7315
48.2088
43.2111
48.2088
40.1706
46.4818
38.7315
43.2111
38.7315
41.6631
34.7163
40.1706
34.7163
46.4818
40.1706
46.4818
40.1706
44.8166
40.1706
92.9635
89.6332
36.0062
25.9289
38.7315
33.4726
41.6631
34.7163
40.1706
37.344
41.6631
33.4726
44.8166
36.0062
28.9278
22.4083
38.7315
34.7163
26.8923
20.0853
36.0062
30.0026
24.1044
20.0853
37.344
33.4726
21.6055
16.7363
43.2111
36.0062
40.1706
31.1173
23.2409
19.3657
20.0853
15.0013
41.6631
34.7163
37.344
28.9278
32.2735
25
15.5587
12.5
37.344
28.9278
32.2735
24.1044
30.0026
23.2409
18.0031
13.9457
15.5587
11.2042
34.7163
26.8923
28.9278
20.8316
25.9289
21.6055
14.4639
11.2042
43.2111
37.344
34.7163
30.0026
17.3581
14.4639
12.0522
8.36815
36.0062
28.9278
33.4726
26.8923
25.9289
22.4083
13.4461
10.4158
11.6204
8.36815
40.1706
36.0062
38.7315
28.9278
24.1044
20.0853
21.6055
16.7363
20.8316
17.3581
13.9457
10.4158
32.2735
26.8923
33.4726
28.9278
20.0853
16.7363
24.1044
20.0853
19.3657
15.0013
18.672
15.0013
28.9278
24.1044
25
18.0031
15.5587
12.5
22.4083
18.0031
12.5
10.4158
19.3657
16.7363
31.1173
27.8914
23.2409
19.3657
13.4461
11.6204
23.2409
18.0031
32.2735
27.8914
21.6055
18.0031
12.0522
9.68287
20.0853
16.7363
30.0026
27.8914
23.2409
19.3657
17.3581
15.0013
10.4158
9.33599
30.0026
26.8923
18.0031
13.4461
26.8923
23.2409
24.1044
22.4083
36.0062
31.1173
22.4083
20.0853
9.00154
7.23194
30.0026
27.8914
16.1367
13.4461
17.3581
15.0013
28.9278
25.9289
31.1173
27.8914
18.672
16.7363
12.5
10.4158
27.8914
25
20.8316
18.0031
37.344
33.4726
15.0013
13.9457
17.3581
15.0013
33.4726
30.0026
25
22.4083
14.4639
12.5
25.9289
25
20.8316
18.672
12.0522
11.2042
28.9278
26.8923
16.1367
15.5587
38.7315
36.0062
20.8316
18.0031
12.0522
11.2042
34.7163
31.1173
11.6204
10.8028
37.344
33.4726
12.9644
11.6204
31.1173
27.8914
22.4083
19.3657
38.7315
36.0062
23.2409
20.8316
11.2042
9.68287
33.4726
32.2735
9.68287
9.00154
26.8923
24.1044
23.2409
20.8316
27.8914
25.9289
10.8028
9.68287
28.9278
26.8923
18.672
16.7363
37.344
36.0062
34.7163
31.1173
16.1367
13.9457
22.4083
21.6055
10.8028
9.68287
13.9457
12.9644
62.2346
57.8555
27.8914
26.8923
62.2346
55.7829
20.8316
20.0853
57.8555
51.8578
30.0026
26.8923
40.1706
38.7315
31.1173
28.9278
41.6631
38.7315
19.3657
18.0031
36.0062
34.7163
18.672
16.1367
34.7163
33.4726
20.0853
18.0031
40.1706
37.344
14.4639
13.4461
31.1173
28.9278
16.1367
15.5587
27.8914
25.9289
20.0853
18.0031
26.8923
25
18.0031
16.1367
36.0062
34.7163
10.0426
9.33599
27.8914
25
11.2042
10.4158
27.8914
26.8923
62.2346
57.8555
32.2735
30.0026
46.4818
44.8166
25
23.2409
41.6631
38.7315
30.0026
27.8914
38.7315
37.344
21.6055
20.8316
32.2735
31.1173
12.9644
12.0522
26.8923
25.9289
18.672
16.7363
36.0062
34.7163
19.3657
18.0031
36.0062
33.4726
18.672
18.0031
33.4726
32.2735
15.0013
13.9457
32.2735
27.8914
11.2042
10.4158
25.9289
25
53.7845
51.8578
27.8914
25.9289
38.7315
36.0062
18.672
17.3581
27.8914
25.9289
41.6631
37.344
28.9278
26.8923
32.2735
31.1173
10.8028
10.0426
31.1173
30.0026
7.50064
6.97286
20.8316
18.672
83.3262
80.3411
30.0026
28.9278
50
48.2088
23.2409
22.4083
33.4726
32.2735
19.3657
18.0031
30.0026
26.8923
24.1044
22.4083
28.9278
27.8914
36.0062
34.7163
17.3581
16.7363
34.7163
32.2735
15.5587
15.0013
31.1173
28.9278
37.344
34.7163
13.9457
12.9644
30.0026
28.9278
23.2409
22.4083
32.2735
30.0026
37.344
36.0062
23.2409
20.8316
30.0026
28.9278
10.0426
9.68287
28.9278
27.8914
30.0026
28.9278
18.0031
16.7363
20.8316
20.0853
38.7315
37.344
8.36815
8.06837
16.1367
15.5587
31.1173
30.0026
16.1367
15.0013
20.8316
19.3657
31.1173
28.9278
17.3581
16.1367
20.0853
18.672
31.1173
26.8923
11.2042
10.0426
13.9457
13.4461
27.8914
26.8923
9.33599
8.67907
20.8316
20.0853
27.8914
25.9289
14.4639
13.9457
16.7363
15.5587
25.9289
24.1044
11.6204
10.8028
20.0853
19.3657
32.2735
30.0026
60.0051
57.8555
20.8316
20.0853
26.8923
25.9289
38.7315
37.344
16.7363
16.1367
25.9289
25
50
46.4818
15.0013
13.9457
26.8923
25.9289
40.1706
38.7315
14.4639
13.9457
31.1173
30.0026
36.0062
33.4726
15.5587
15.0013
26.8923
25
37.344
36.0062
12.5
11.6204
27.8914
26.8923
33.4726
31.1173
16.1367
15.0013
25
24.1044
40.1706
37.344
15.0013
13.9457
21.6055
20.8316
36.0062
33.4726
12.0522
11.6204
11.2042
10.8028
22.4083
21.6055
30.0026
28.9278
9.68287
9.33599
19.3657
18.672
32.2735
31.1173
32.2735
31.1173
18.0031
17.3581
16.1367
15.5587
20.0853
19.3657
27.8914
26.8923
11.6204
11.2042
17.3581
16.7363
24.1044
23.2409
34.7163
33.4726
10.4158
10.0426
13.9457
13.4461
28.9278
27.8914
28.9278
27.8914
48.2088
46.4818
18.672
18.0031
23.2409
22.4083
31.1173
28.9278
89.6332
86.4222
20.8316
20.0853
20.8316
20.0853
25.9289
25
55.7829
53.7845
18.0031
17.3581
24.1044
23.2409
37.344
36.0062
38.7315
37.344
11.2042
10.4158
11.6204
11.2042
31.1173
28.9278
25
24.1044
41.6631
38.7315
18.0031
17.3581
18.672
18.0031
27.8914
26.8923
41.6631
38.7315
10.4158
9.68287
18.672
18.0031
28.9278
27.8914
46.4818
44.8166
18.672
18.0031
10.4158
9.68287
18.672
18.0031
34.7163
33.4726
66.9452
64.547
17.3581
16.7363
16.7363
15.5587
30.0026
28.9278
27.8914
26.8923
57.8555
55.7829
18.672
18.0031
21.6055
20.8316
25.9289
25
69.4326
64.547
12.5
12.0522
22.4083
21.6055
24.1044
23.2409
24.1044
23.2409
38.7315
37.344
12.9644
12.5
21.6055
20.8316
30.0026
28.9278
26.8923
25
32.2735
31.1173
12.9644
12.5
14.4639
13.9457
13.4461
12.9644
12.9644
12.0522
18.0031
17.3581
15.5587
15.0013
22.4083
20.8316
25.9289
25
34.7163
32.2735
26.8923
25.9289
16.7363
15.5587
19.3657
18.672
16.7363
16.1367
18.0031
17.3581
15.0013
14.4639
25
24.1044
18.672
18.0031
18.672
18.0031
15.5587
15.0013
17.3581
16.7363
14.4639
13.9457
16.7363
16.1367
13.4461
12.9644
17.3581
16.7363
10.8028
10.4158
8.67907
8.36815
10.4158
10.0426
10.8028
10.4158
10.8028
10.0426
10.4158
10.0426
12.9644
12.5
12.9644
12.5
11.2042
10.8028
13.4461
12.9644
10.0426
9.68287
11.6204
11.2042
22.4083
21.6055
60.0051
57.8555
10.4158
10.0426
15.0013
14.4639
9.33599
9.00154
57.8555
55.7829
53.7845
51.8578
51.8578
50
50
48.2088
53.7845
51.8578
51.8578
50
48.2088
46.4818
53.7845
51.8578
66.9452
64.547
80.3411
77.463
64.547
62.2346
72.0123
69.4326
43.2111
41.6631
48.2088
46.4818
48.2088
46.4818
46.4818
44.8166
43.2111
41.6631
43.2111
41.6631
44.8166
43.2111
37.344
36.0062
40.1706
38.7315
43.2111
41.6631
37.344
36.0062
41.6631
38.7315
41.6631
38.7315
36.0062
34.7163
31.1173
30.0026
40.1706
38.7315
37.344
34.7163
33.4726
32.2735
34.7163
33.4726
28.9278
27.8914
30.0026
28.9278
30.0026
28.9278
32.2735
31.1173
31.1173
30.0026
33.4726
32.2735
21.6055
20.8316
21.6055
20.8316
21.6055
20.8316
25.9289
25
22.4083
21.6055
19.3657
18.672
26.8923
25.9289
20.0853
18.672
19.3657
18.672
17.3581
16.7363
21.6055
20.0853
20.8316
20.0853
23.2409
22.4083
16.1367
15.5587
16.7363
16.1367
20.8316
20.0853
11.6204
11.2042
60.0051
57.8555
60.0051
57.8555
96.4176
92.9635
86.4222
83.3262
44.8166
43.2111
40.1706
38.7315
37.344
36.0062
25.9289
25
25
24.1044
17.3581
16.7363
12.5
12.0522
10.4158
10.0426
44.8166
43.2111
38.7315
37.344
36.0062
34.7163
20.0853
19.3657
18.0031
17.3581
12.5
12.0522
12.0522
11.6204
28.9278
27.8914
28.9278
27.8914
20.8316
20.0853
18.0031
17.3581
12.5
12.0522
8.67907
8.36815
33.4726
32.2735
32.2735
31.1173
21.6055
20.8316
27.8914
26.8923
64.547
62.2346
27.8914
26.8923
15.5587
15.0013
10.0426
9.68287
77.463
74.6879
36.0062
34.7163
31.1173
30.0026
60.0051
57.8555
32.2735
31.1173
20.0853
19.3657
44.8166
43.2111
22.4083
21.6055
19.3657
18.672
48.2088
46.4818
25.9289
25
15.5587
15.0013
64.547
62.2346
33.4726
32.2735
14.4639
13.9457
13.9457
13.4461
51.8578
50
13.4461
12.9644
21.6055
20.8316
60.0051
57.8555
20.0853
19.3657
22.4083
21.6055
40.1706
38.7315
16.7363
16.1367
57.8555
55.7829
18.672
18.0031
40.1706
38.7315
22.4083
21.6055
40.1706
38.7315
16.1367
15.5587
41.6631
40.1706
18.672
18.0031
20.0853
19.3657
44.8166
43.2111
15.0013
14.4639
28.9278
27.8914
12.0522
11.6204
21.6055
20.8316
30.0026
28.9278
100
96.4176
16.1367
15.5587
43.2111
41.6631
48.2088
46.4818
43.2111
41.6631
40.1706
38.7315
44.8166
43.2111
44.8166
43.2111
43.2111
41.6631
44.8166
43.2111
40.1706
38.7315
38.7315
37.344
40.1706
38.7315
40.1706
38.7315
36.0062
34.7163
33.4726
32.2735
34.7163
33.4726
34.7163
33.4726
38.7315
37.344
34.7163
33.4726
34.7163
33.4726
28.9278
27.8914
30.0026
28.9278
36.0062
34.7163
28.9278
27.8914
37.344
36.0062
31.1173
30.0026
30.0026
28.9278
34.7163
33.4726
31.1173
30.0026
34.7163
33.4726
26.8923
25.9289
26.8923
25.9289
33.4726
32.2735
30.0026
28.9278
27.8914
26.8923
26.8923
25.9289
30.0026
28.9278
20.0853
19.3657
25
24.1044
25
24.1044
33.4726
32.2735
25
24.1044
31.1173
30.0026
22.4083
21.6055
19.3657
18.672
22.4083
21.6055
19.3657
18.672
30.0026
28.9278
19.3657
18.672
30.0026
28.9278
26.8923
25.9289
20.0853
19.3657
28.9278
27.8914
19.3657
18.672
17.3581
16.7363
19.3657
18.672
19.3657
18.672
18.672
18.0031
27.8914
26.8923
10.0426
9.68287
25.9289
24.1044
19.3657
18.672
16.7363
16.1367
25
24.1044
21.6055
20.8316
21.6055
20.8316
7.23194
6.97286
25
24.1044
20.0853
19.3657
18.672
18.0031
15.5587
15.0013
16.1367
15.5587
13.9457
13.4461
15.0013
14.4639
23.2409
22.4083
25.9289
24.1044
14.4639
13.9457
10.0426
9.68287
9.68287
9.33599
16.7363
16.1367
16.7363
16.1367
20.8316
20.0853
19.3657
18.672
25
24.1044
15.5587
15.0013
14.4639
13.9457
13.4461
12.9644
18.0031
17.3581
24.1044
23.2409
17.3581
16.7363
12.9644
12.5
17.3581
16.7363
12.0522
11.2042
11.6204
11.2042
18.0031
17.3581
7.77933
7.50064
15.5587
15.0013
13.4461
12.9644
8.06837
7.77933
9.00154
8.67907
18.0031
17.3581
13.9457
13.4461
17.3581
16.7363
21.6055
20.8316
11.6204
11.2042
11.6204
11.2042
15.5587
15.0013
10.8028
10.4158
14.4639
13.9457
10.8028
10.4158
10.8028
10.4158
10.4158
10.0426
8.67907
8.36815
12.0522
11.6204
10.8028
10.4158
11.2042
10.8028
10.0426
9.33599
9.68287
9.33599
11.6204
11.2042
10.0426
9.68287
11.2042
10.8028
10.0426
9.68287
10.8028
10.4158
12.5
12.0522
9.33599
9.00154
10.8028
10.4158
16.7363
16.1367
9.00154
8.67907
9.68287
9.00154
9.33599
8.67907
9.00154
8.67907
