# vtk DataFile Version 3.0
Tree
ASCII
DATASET POLYDATA
POINTS 200 float
0 0 0
2.25634 -5.75467 0
0.35058 -3.31933 0
-0.167813 -3.614 0
-0.0641344 -3.55507 0
-2.91299 -5.57327 0
-0.535858 -4.34939 0
0.426105 -5.50848 0
1.7856 -4.16181 0
2.10703 -3.91169 0
-1.14457 -4.36497 0
-1.20228 -3.20343 0
1.84989 -4.11179 0
1.37499 -2.73873 0
-1.63239 -5.17116 0
-1.4799 -5.77629 0
-1.88851 -5.25158 0
-0.83312 -1.80269 0
0.517574 -4.99625 0
1.13576 -4.80744 0
-1.36248 -5.48018 0
-0.58782 -5.50601 0
1.90132 -4.07177 0
3.08895 -5.55315 0
1.94246 -4.03975 0
1.11764 -2.00877 0
-1.38596 -5.5394 0
1.34553 -5.4613 0
-1.7719 -4.36497 0
-2.36085 -4.2674 0
-2.17057 -4.41881 0
-2.58734 -4.8293 0
-2.20862 -4.38853 0
-0.605474 -1.25217 0
0.634882 -4.80613 0
0.485929 -4.23449 0
-0.860524 -2.97042 0
-0.565868 -2.89481 0
1.33898 -2.78473 0
0.72003 -1.59566 0
1.10253 -2.59966 0
0.775706 -3.04848 0
-0.566395 -5.24192 0
-0.70279 -4.83474 0
-0.649375 -2.01149 0
-0.360055 -1.74083 0
-0.591511 -1.95736 0
-0.134394 -2.94919 0
-1.54555 -5.63842 0
-2.08996 -5.7976 0
1.10977 -4.84294 0
1.50671 -4.98624 0
0.701113 -1.57093 0
0.561001 -1.21977 0
-1.53242 -5.66599 0
1.79037 -5.60004 0
-0.29742 -2.85183 0
-0.492407 -3.45424 0
0.634424 -1.60034 0
0.647891 -2.42029 0
-0.264815 -2.87131 0
-0.279557 -0.684605 0
1.25365 -4.77866 0
1.4322 -4.37824 0
1.25673 -4.47331 0
0.911941 -4.05277 0
-2.23907 -4.3643 0
-2.94784 -5.25317 0
0.889445 -4.20154 0
0.109891 -3.95555 0
-0.706411 -5.1359 0
-1.13008 -5.11903 0
0.181384 -4.13162 0
-0.101153 -4.27272 0
-0.528579 -3.37559 0
-0.868252 -3.66339 0
-2.26395 -4.68616 0
-2.19564 -4.88194 0
1.26195 -4.88843 0
1.04211 -5.11995 0
2.08905 -4.02061 0
2.34625 -4.20018 0
-0.690241 -3.61837 0
-0.657545 -4.01388 0
-2.12499 -5.76783 0
-2.80951 -5.80795 0
1.69503 -5.79592 0
2.50189 -5.8284 0
2.39909 -4.95966 0
2.33506 -5.05779 0
-0.572062 -3.61432 0
-0.13204 -3.20262 0
0.531208 -1.20845 0
0.338614 -0.782591 0
1.02793 -5.07132 0
0.751372 -5.10833 0
-0.770846 -4.9284 0
-1.03583 -4.7007 0
-0.216672 -2.31501 0
-0.00935845 -2.27651 0
-0.688163 -4.86616 0
-0.425486 -4.71085 0
0.14453 -4.20778 0
0.279651 -4.37133 0
2.51727 -5.7857 0
2.94378 -5.73789 0
-2.25286 -4.23945 0
-2.18623 -3.83693 0
2.31209 -4.21048 0
2.43267 -4.43124 0
1.7713 -5.63922 0
1.52775 -4.73908 0
-2.27446 -4.24504 0
-3.11296 -5.44649 0
-1.5208 -4.06812 0
-1.42777 -4.2753 0
0.952557 -2.95415 0
1.05442 -3.03707 0
0.761434 -4.25415 0
0.957448 -4.53448 0
-0.643655 -4.78377 0
-0.728299 -4.60955 0
2.57199 -5.67451 0
2.36437 -5.27758 0
0.175754 -3.95268 0
0.296217 -3.58909 0
1.64804 -4.87019 0
1.7067 -4.61678 0
-0.686124 -1.96973 0
-1.19772 -2.90204 0
-0.443877 -0.902183 0
-0.484957 -0.956578 0
-0.411013 -0.858668 0
-0.0470006 -1.85467 0
0.283937 -3.89247 0
0.596205 -4.0152 0
-0.0454411 -1.89817 0
-0.0392033 -2.07216 0
-0.045753 -1.88947 0
-0.176093 -0.460509 0
0.454924 -1.14777 0
0.342379 -1.33094 0
-1.01817 -4.82264 0
-1.12416 -4.8917 0
0.387397 -1.25767 0
0.499883 -2.55579 0
-0.460309 -0.923941 0
-0.542658 -1.53861 0
-2.1319 -5.73124 0
-2.15955 -5.58487 0
0.987528 -3.07329 0
1.12741 -3.54986 0
1.06736 -3.17505 0
1.24681 -3.10549 0
2.42846 -4.4187 0
2.77334 -5.03084 0
-0.145466 -2.36677 0
-0.0679571 -2.61231 0
0.205558 -3.85834 0
-0.120239 -4.02521 0
1.71432 -4.88903 0
1.92079 -5.21783 0
1.15826 -3.37916 0
1.40176 -3.44601 0
0.378393 -1.27233 0
0.238188 -0.592187 0
2.31892 -4.20842 0
1.77736 -3.15831 0
-0.465239 -0.930469 0
-1.64046 -2.87657 0
0.223689 -3.80449 0
1.09677 -4.13107 0
2.82782 -5.6466 0
2.83977 -5.54135 0
1.71028 -5.76458 0
-0.224996 -5.56613 0
2.5142 -5.79424 0
-1.7002 -5.82861 0
0.181586 -4.33916 0
0.0595682 -4.53758 0
1.37863 -3.4835 0
1.52959 -3.70033 0
0.91519 -3.9854 0
1.07936 -3.93019 0
-2.1755 -4.88153 0
-2.02664 -5.07568 0
-0.550481 -1.51132 0
-0.603389 -1.77773 0
0.925694 -3.93218 0
0.803538 -3.7745 0
-1.13485 -2.84958 0
-1.39497 -3.57203 0
-0.693819 -3.84756 0
-1.00988 -3.98138 0
0.244137 -0.618775 0
0.182959 -0.318587 0
0.828594 -4.51048 0
0.73332 -4.61465 0
1.09738 -3.46912 0
0.915546 -3.48756 0
LINES 199 597
2 8 1
2 0 2
2 4 3
2 2 4
2 16 5
2 4 6
2 18 7
2 2 8
2 80 9
2 6 10
2 10 11
2 8 12
2 38 13
2 10 14
2 54 15
2 14 16
2 128 17
2 6 18
2 50 19
2 14 20
2 20 21
2 12 22
2 88 23
2 22 24
2 24 25
2 20 26
2 42 27
2 16 28
2 112 29
2 28 30
2 76 31
2 30 32
2 32 33
2 18 34
2 34 35
2 114 36
2 36 37
2 12 38
2 52 39
2 38 40
2 116 41
2 26 42
2 100 43
2 36 44
2 46 45
2 44 46
2 60 47
2 26 48
2 84 49
2 34 50
2 78 51
2 40 52
2 92 53
2 48 54
2 110 55
2 46 56
2 74 57
2 52 58
2 58 59
2 56 60
2 132 61
2 50 62
2 64 63
2 62 64
2 68 65
2 32 66
2 66 67
2 64 68
2 124 69
2 42 70
2 70 71
2 118 72
2 102 73
2 56 74
2 82 75
2 30 76
2 184 77
2 62 78
2 94 79
2 24 80
2 166 81
2 74 82
2 192 83
2 48 84
2 148 85
2 54 86
2 176 87
2 22 88
2 88 89
2 82 90
2 90 91
2 58 92
2 140 93
2 78 94
2 94 95
2 70 96
2 142 97
2 60 98
2 156 99
2 96 100
2 120 101
2 72 102
2 178 103
2 86 104
2 172 105
2 66 106
2 106 107
2 80 108
2 154 109
2 174 110
2 126 111
2 106 112
2 112 113
2 28 114
2 114 115
2 40 116
2 150 117
2 68 118
2 196 119
2 100 120
2 120 121
2 104 122
2 122 123
2 72 124
2 170 125
2 110 126
2 160 127
2 44 128
2 190 129
2 98 130
2 168 131
2 130 132
2 138 133
2 124 134
2 134 135
2 132 136
2 136 137
2 136 138
2 138 139
2 92 140
2 164 141
2 96 142
2 142 143
2 140 144
2 144 145
2 130 146
2 186 147
2 84 148
2 148 149
2 116 150
2 198 151
2 150 152
2 152 153
2 108 154
2 154 155
2 98 156
2 156 157
2 134 158
2 158 159
2 126 160
2 160 161
2 152 162
2 180 163
2 144 164
2 194 165
2 108 166
2 166 167
2 146 168
2 168 169
2 158 170
2 182 171
2 122 172
2 172 173
2 86 174
2 174 175
2 104 176
2 176 177
2 102 178
2 178 179
2 162 180
2 180 181
2 170 182
2 188 183
2 76 184
2 184 185
2 146 186
2 186 187
2 182 188
2 188 189
2 128 190
2 190 191
2 90 192
2 192 193
2 164 194
2 194 195
2 118 196
2 196 197
2 162 198
2 198 199
CELL_DATA 199
SCALARS radius float
LOOKUP_TABLE default
1.39315
6.49382
0.67006
5.98346
1.25539
5.98065
1.0822
3.90669
0.749465
5.53797
1.23298
3.84671
0.679071
5.51752
0.747687
4.70357
1.01239
3.5323
0.623547
3.99812
1.16974
2.47752
1.56061
2.19596
1.52556
3.96446
1.67281
4.67357
0.771494
2.6646
1.16651
2.44477
1.84279
3.49811
1.13898
4.3523
1.02318
3.4681
0.690481
3.4594
1.05395
2.47439
0.765431
4.33337
1.09876
4.18208
0.97957
3.61291
0.734324
3.45739
1.04275
3.01943
0.762922
3.4923
0.739046
4.15665
0.959484
3.00734
1.58253
3.79585
1.31385
3.45062
0.957606
3.32963
0.946561
2.0291
1.39961
3.30301
0.907238
2.18758
1.20703
3.16888
1.28349
2.57757
1.25601
1.62697
0.712873
1.60984
0.871145
1.91647
0.579662
2.53247
1.48721
1.65912
1.46761
3.48084
0.755032
1.66525
0.934842
2.42499
1.75499
2.85354
1.45069
1.44835
1.3346
2.05751
1.24463
3.77397
1.12207
1.68868
1.3246
1.87376
1.16254
2.89328
1.43536
1.77714
1.12087
1.87747
0.539355
2.26719
1.35131
1.61399
1.55296
4.36492
0.895898
2.4028
0.862753
3.2769
1.17838
1.63454
1.26888
2.04628
1.48958
2.93344
1.31846
2.24071
1.56198
2.01886
1.04185
3.69265
0.816146
3.0022
1.06402
2.90423
1.40189
2.91586
1.58666
2.75
2.69585
2.83524
0.97913
1.57334
1.25287
2.70253
2.02911
2.85587
1.1449
1.60972
1.00333
2.33321
1.17202
2.2932
1.14008
1.48039
1.45613
1.50376
1.25734
2.79099
1.46335
2.0632
1.70674
2.19514
1.08298
2.24957
1.13518
1.49979
1.47035
2.38854
2.35634
2.64988
1.77607
1.73947
1.32115
2.61855
1.84702
2.50141
2.47826
1.64659
1.42492
1.8309
1.69472
2.53628
1.69087
1.39579
1.33083
2.13014
2.01364
2.20445
1.80477
1.93016
1.82316
2.06885
1.77217
2.18596
2.07874
1.4987
1.20045
1.6436
1.4145
