# vtk DataFile Version 3.0
Tree
ASCII
DATASET POLYDATA
POINTS 200 float
0 0 0
2.25634 -5.75467 0
1.12817 -2.87733 0
-0.167813 -3.614 0
0.480178 -3.24567 0
-2.91299 -5.57327 0
-1.21641 -4.40947 0
0.426105 -5.50848 0
-2.0647 -4.99137 0
-1.64046 -2.87657 0
-2.48884 -5.28232 0
-1.4799 -5.77629 0
-1.85258 -3.93397 0
-0.542658 -1.53861 0
-0.39515 -4.95897 0
0.73332 -4.61465 0
1.69225 -4.316 0
3.08895 -5.55315 0
-1.19762 -2.73629 0
-0.0679571 -2.61231 0
0.0154773 -5.23373 0
1.34553 -5.4613 0
0.220791 -5.3711 0
-0.371664 -5.76878 0
-0.0754364 -5.56994 0
-0.899291 -5.46476 0
0.169085 -4.78681 0
0.596205 -4.0152 0
-0.870138 -2.13745 0
-0.484957 -0.956578 0
-0.706398 -1.83803 0
-0.0470006 -1.85467 0
2.3906 -4.93458 0
2.34625 -4.20018 0
0.382645 -4.40101 0
1.09677 -4.13107 0
2.36843 -4.56738 0
1.77736 -3.15831 0
0.489425 -4.2081 0
-0.101153 -4.27272 0
0.739707 -4.26604 0
1.13576 -4.80744 0
-0.376699 -1.84635 0
0.499883 -2.55579 0
-0.632788 -2.6743 0
-1.29441 -3.95587 0
-0.21185 -1.85051 0
-0.0140727 -1.06876 0
-1.74652 -3.40527 0
-2.36085 -4.2674 0
0.937734 -4.53674 0
1.50671 -4.98624 0
-0.350372 -2.6433 0
-0.365285 -3.24934 0
-0.487364 -5.51735 0
-1.13008 -5.11903 0
0.542815 -4.11165 0
0.915546 -3.48756 0
-2.05368 -3.83633 0
-2.58734 -4.8293 0
1.22222 -4.76149 0
1.79037 -5.60004 0
0.72918 -3.79961 0
-0.494475 -4.45015 0
0.0615918 -2.20107 0
0.167214 -2.82567 0
-0.22355 -5.66936 0
0.956967 -5.75672 0
0.280737 -2.37843 0
0.449102 -2.10614 0
-0.112961 -1.45963 0
-0.279557 -0.684605 0
-0.808722 -5.31819 0
-1.55263 -5.42158 0
-2.32051 -4.33282 0
-2.94784 -5.25317 0
2.07289 -3.86284 0
1.11764 -2.00877 0
0.114403 -2.51337 0
-0.538886 -2.33397 0
-1.98437 -5.5293 0
-2.08996 -5.7976 0
1.5063 -5.18076 0
1.04211 -5.11995 0
0.366708 -5.71304 0
2.50189 -5.8284 0
1.4343 -5.77072 0
-2.80951 -5.80795 0
0.140808 -2.66952 0
0.432132 -2.90365 0
1.64833 -5.3904 0
1.4322 -4.37824 0
2.73978 -5.24386 0
2.36437 -5.27758 0
-1.18068 -5.36989 0
-1.51962 -4.93086 0
-0.677548 -1.54701 0
-1.1281 -2.04647 0
-0.063517 -1.2642 0
0.146774 -1.65457 0
0.822363 -3.64358 0
0.511479 -3.52625 0
-0.0387949 -1.16648 0
-0.0012725 -0.824095 0
-1.36665 -5.39573 0
-1.94428 -5.29525 0
-0.0200337 -0.995287 0
0.236764 -1.9979 0
-0.963599 -3.31508 0
-1.5121 -3.83793 0
-2.63418 -4.79299 0
-3.11296 -5.44649 0
0.28647 -2.78658 0
-0.868252 -3.66339 0
1.59527 -2.93581 0
1.75388 -3.84692 0
-1.35015 -5.15037 0
-1.12416 -4.8917 0
1.96809 -5.79956 0
2.94378 -5.73789 0
-0.0106531 -0.909691 0
-0.176093 -0.460509 0
1.71935 -5.49522 0
0.751372 -5.10833 0
-0.290891 -3.22499 0
-1.00988 -3.98138 0
-0.650385 -3.60318 0
-1.42777 -4.2753 0
-1.23715 -5.02104 0
-0.67329 -5.12273 0
0.666921 -3.58492 0
-0.380643 -4.14167 0
1.54027 -4.88432 0
1.12741 -3.54986 0
-0.902824 -1.79674 0
-1.32048 -2.52403 0
-1.23785 -3.57651 0
-1.20228 -3.20343 0
-0.00596279 -0.866893 0
0.337191 -1.54417 0
0.194136 -4.24041 0
0.0595682 -4.53758 0
0.165614 -1.20553 0
0.647891 -2.42029 0
-0.212242 -2.42367 0
-0.586155 -2.1367 0
1.67457 -3.39136 0
1.98549 -4.20892 0
1.23536 -5.30178 0
0.690473 -4.82573 0
-0.196259 -1.07212 0
-0.337622 -1.54196 0
-0.955222 -5.07188 0
-0.234914 -5.30172 0
-0.830133 -3.79228 0
0.255546 -3.06515 0
0.962917 -5.06375 0
0.393878 -5.11993 0
-0.375564 -2.37882 0
-0.728781 -2.51828 0
0.126852 -4.389 0
-0.425486 -4.71085 0
0.5892 -3.55558 0
0.296217 -3.58909 0
2.91436 -5.39851 0
2.77334 -5.03084 0
2.45594 -5.76873 0
2.47412 -5.59028 0
-1.11165 -2.16039 0
-1.38805 -2.71831 0
-2.79101 -5.02308 0
-2.19564 -4.88194 0
1.33384 -4.21709 0
1.07936 -3.93019 0
2.69986 -5.75331 0
2.83977 -5.54135 0
-1.01546 -1.92161 0
-0.800829 -1.44343 0
-2.49332 -4.95251 0
-2.05655 -4.18197 0
-1.03908 -3.93924 0
-0.565868 -2.89481 0
1.83003 -3.80014 0
2.13625 -4.4095 0
1.2066 -4.07364 0
0.911941 -4.05277 0
1.27022 -4.14537 0
1.30098 -4.56945 0
0.442709 -3.57234 0
-0.920447 -4.37002 0
-0.814256 -5.09731 0
-1.03583 -4.7007 0
0.251403 -1.37485 0
0.015919 -0.584634 0
-0.552172 -2.44855 0
-0.958696 -2.55067 0
-0.00221033 -3.00579 0
-0.134394 -2.94919 0
-2.03717 -5.66345 0
-2.35137 -5.50406 0
LINES 199 597
2 16 1
2 0 2
2 4 3
2 2 4
2 10 5
2 4 6
2 22 7
2 6 8
2 48 9
2 8 10
2 80 11
2 8 12
2 30 13
2 6 14
2 26 15
2 2 16
2 164 17
2 12 18
2 52 19
2 14 20
2 20 21
2 20 22
2 66 23
2 22 24
2 54 25
2 14 26
2 56 27
2 18 28
2 96 29
2 28 30
2 46 31
2 16 32
2 36 33
2 26 34
2 40 35
2 32 36
2 76 37
2 34 38
2 140 39
2 34 40
2 50 41
2 30 42
2 68 43
2 18 44
2 108 45
2 42 46
2 102 47
2 12 48
2 58 49
2 40 50
2 60 51
2 44 52
2 52 53
2 24 54
2 72 55
2 38 56
2 100 57
2 48 58
2 74 59
2 50 60
2 122 61
2 56 62
2 62 63
2 42 64
2 88 65
2 24 66
2 84 67
2 64 68
2 68 69
2 46 70
2 150 71
2 54 72
2 104 73
2 58 74
2 170 75
2 36 76
2 114 77
2 64 78
2 158 79
2 10 80
2 198 81
2 60 82
2 82 83
2 66 84
2 118 85
2 84 86
2 86 87
2 78 88
2 112 89
2 82 90
2 132 91
2 32 92
2 92 93
2 72 94
2 116 95
2 28 96
2 176 97
2 70 98
2 98 99
2 62 100
2 162 101
2 98 102
2 138 103
2 94 104
2 104 105
2 102 106
2 106 107
2 44 108
2 136 109
2 74 110
2 110 111
2 88 112
2 124 113
2 76 114
2 146 115
2 94 116
2 128 117
2 86 118
2 174 119
2 106 120
2 120 121
2 90 122
2 148 123
2 196 124
2 154 125
2 124 126
2 180 127
2 116 128
2 190 129
2 100 130
2 130 131
2 90 132
2 172 133
2 96 134
2 168 135
2 108 136
2 136 137
2 120 138
2 192 139
2 38 140
2 160 141
2 138 142
2 142 143
2 78 144
2 144 145
2 114 146
2 182 147
2 122 148
2 156 149
2 70 150
2 150 151
2 128 152
2 152 153
2 126 154
2 154 155
2 148 156
2 156 157
2 144 158
2 194 159
2 140 160
2 160 161
2 130 162
2 188 163
2 92 164
2 164 165
2 118 166
2 166 167
2 134 168
2 168 169
2 110 170
2 178 171
2 132 172
2 184 173
2 166 174
2 174 175
2 134 176
2 176 177
2 170 178
2 178 179
2 126 180
2 180 181
2 146 182
2 182 183
2 186 184
2 184 185
2 172 186
2 186 187
2 162 188
2 188 189
2 152 190
2 190 191
2 142 192
2 192 193
2 158 194
2 194 195
2 112 196
2 196 197
2 80 198
2 198 199
CELL_DATA 199
SCALARS radius float
LOOKUP_TABLE default
1.34596
6.66067
1.05086
6.44101
1.13697
6.43167
0.908608
5.31375
1.1434
1.97299
1.36842
5.22149
1.09682
4.87723
1.11977
3.04674
1.15228
4.95273
1.17852
3.73992
1.3679
3.6779
0.86766
3.65932
1.11152
3.99386
0.790584
4.73888
1.36655
4.4945
0.953303
2.95654
1.03415
3.9643
1.06423
2.73697
1.32439
2.82516
1.09911
3.41289
1.05901
4.47262
1.29189
2.4699
1.53601
3.28714
0.927545
2.75325
1.20094
3.37804
1.11481
1.65422
1.42437
2.82644
1.14427
2.58285
0.974824
2.68588
1.30708
3.34298
0.950191
2.55792
1.5646
3.77867
1.02164
2.9784
1.21895
1.65438
1.33361
3.2602
1.42594
2.76793
1.11308
2.60333
1.28189
2.68684
1.61459
3.66986
1.20659
1.83813
1.0728
3.30114
1.24946
2.95365
1.43657
2.88276
2.17203
3.34171
1.08576
3.24036
1.42358
1.74798
1.15599
2.70115
1.1995
2.50023
1.15033
3.0492
1.32166
2.34567
0.847628
2.96408
0.789874
1.66532
1.47963
2.93349
1.70586
2.19258
1.51431
2.48851
1.56509
3.30957
1.6456
2.57499
1.44037
2.47112
1.11205
2.39337
1.61644
2.72701
1.4301
2.36848
1.50719
3.23298
1.44936
3.08411
1.78596
2.37307
1.2533
2.28815
1.609
2.74737
1.80279
2.35599
1.5044
1.90532
1.51018
2.58905
1.31165
1.74555
1.01776
2.56431
1.9845
2.29631
1.44942
2.34314
1.6035
2.31636
1.55181
1.8471
1.50407
2.28871
1.74804
2.36557
2.16821
2.08045
1.73997
2.08497
1.37496
1.58619
1.43202
1.98441
1.01351
1.55995
1.31349
2.20666
1.29555
1.99871
1.66066
2.2622
1.43283
2.61355
1.45879
2.04646
1.63203
1.7205
1.52845
2.11572
1.86902
2.52495
2.18285
2.14551
1.79187
1.94844
1.62522
2.28899
1.66261
1.93145
1.83355
1.88024
1.67253
2.08367
1.89361
1.94049
1.67597
3.27015
1.05642
1.5394
1.34134
