# vtk DataFile Version 3.0
Tree
ASCII
DATASET POLYDATA
POINTS 36 float
0 0.0287941 0
-0.0126607 -0.0251748 0
0.00423547 0.00213237 0
0.0259787 -0.0201673 0
-0.00208886 0.02004 0
-0.0230888 0.017684 0
-0.000626657 0.0261679 0
0.0234609 0.0278788 0
-0.0113544 0.0154728 0
-0.0277715 -0.00803917 0
0.00440476 0.0102646 0
0.0248694 0.00521801 0
0.000584411 -0.0118647 0
0.00567841 -0.024451 0
-0.0213202 -0.0047847 0
-0.018803 -0.0165692 0
0.0163989 0.0241142 0
0.025768 0.016389 0
-0.0213376 -0.0122665 0
-0.0277377 -0.0287649 0
-0.000187997 0.0280062 0
-0.0109378 0.0282299 0
0.00143954 -0.00384173 0
-0.00660784 -0.00554711 0
-0.0170218 0.00741038 0
-0.0269212 0.00852779 0
0.0159869 -0.0152911 0
0.0151431 -0.0282376 0
0.014371 -0.00999766 0
0.0271084 -0.0110833 0
-0.013508 0.0124091 0
-0.00722621 0.00214039 0
0.0203776 0.00404537 0
0.0263683 -0.00329567 0
0.0117956 0.00856903 0
0.0172645 0.0137013 0
LINES 35 105
2 12 1
2 10 2
2 26 3
2 6 4
2 8 5
2 20 6
2 16 7
2 4 8
2 14 9
2 4 10
2 32 11
2 22 12
2 12 13
2 24 14
2 18 15
2 6 16
2 16 17
2 14 18
2 18 19
2 0 20
2 20 21
2 2 22
2 22 23
2 30 24
2 24 25
2 28 26
2 26 27
2 2 28
2 28 29
2 8 30
2 30 31
2 34 32
2 32 33
2 10 34
2 34 35
CELL_DATA 35
SCALARS radius float
LOOKUP_TABLE default
0.49913
0.836962
0.47033
1.08145
0.373808
1.11903
0.386321
0.780836
0.402451
0.92393
0.38573
0.605375
0.460271
0.677286
0.409206
0.514862
0.428767
0.626157
0.561443
1.12883
0.333625
0.649476
0.373502
0.716061
0.383662
0.604461
0.488835
0.678486
0.450587
0.751166
0.384152
0.537624
0.461048
0.587146
0.360929
