# vtk DataFile Version 3.0
Tree
ASCII
DATASET POLYDATA
POINTS 238 float
0 0.0287941 0
-0.0126607 -0.0251748 0
0.00423547 0.00213237 0
0.0259787 -0.0201673 0
-0.00208886 0.02004 0
-0.0230888 0.017684 0
-0.000626657 0.0261679 0
0.0234609 0.0278788 0
-0.0113544 0.0154728 0
-0.0277715 -0.00803917 0
0.00440476 0.0102646 0
0.0248694 0.00521801 0
0.000584411 -0.0118647 0
0.00567841 -0.024451 0
-0.0213202 -0.0047847 0
-0.018803 -0.0165692 0
0.0163989 0.0241142 0
0.025768 0.016389 0
-0.0213376 -0.0122665 0
-0.0277377 -0.0287649 0
-0.000187997 0.0280062 0
-0.0109378 0.0282299 0
0.00143954 -0.00384173 0
-0.00660784 -0.00554711 0
-0.0170218 0.00741038 0
-0.0269212 0.00852779 0
0.0159869 -0.0152911 0
0.0151431 -0.0282376 0
0.014371 -0.00999766 0
0.0271084 -0.0110833 0
-0.013508 0.0124091 0
-0.00722621 0.00214039 0
0.0203776 0.00404537 0
0.0263683 -0.00329567 0
0.0117956 0.00856903 0
0.0172645 0.0137013 0
-0.0204826 0.0190241 0
-0.0271918 0.024997 0
0.0242807 0.0167011 0
0.028487 0.010882 0
0.0227695 -0.0205966 0
0.0287911 -0.0286667 0
-0.0043784 -0.00657035 0
-0.0101418 -0.0116378 0
0.00675429 0.0243065 0
0.00953057 0.0180069 0
-0.00509265 -0.0216583 0
-0.00378697 -0.0259925 0
-0.02276 -0.0217607 0
-0.0191033 -0.0273189 0
-0.0206155 7.34199e-05 0
-0.0270325 -0.000571521 0
0.0113355 -0.00483929 0
0.0180277 -0.0034772 0
0.000840949 -0.0094578 0
0.00760505 -0.0139596 0
-0.0243443 0.0201667 0
-0.0285237 0.0179851 0
-0.0226881 -0.015204 0
-0.0282408 -0.0149384 0
-0.0208269 -0.00138402 0
-0.0148962 -0.00497277 0
0.00245667 0.0131973 0
-0.00190827 0.00677609 0
-0.00399943 -0.0176114 0
-0.0114766 -0.0172359 0
0.00855223 -0.00107001 0
0.0132622 0.000671196 0
0.00581067 -0.0186696 0
0.0095106 -0.0193764 0
-0.00560977 0.0183045 0
-0.00983804 0.0219098 0
-0.0216729 0.0201879 0
-0.0215373 0.0251335 0
0.0176163 0.00639025 0
0.0221089 0.00948534 0
-0.0102381 0.0282007 0
-0.0176531 0.0283175 0
-0.0204743 -0.00887842 0
-0.0152242 -0.0110457 0
0.0205302 0.0213921 0
0.026204 0.0232034 0
-0.00771607 -0.0244264 0
-0.00797511 -0.0285304 0
0.0170112 -0.024156 0
0.0208507 -0.0284566 0
-0.0173585 0.0169539 0
-0.0209878 0.0131155 0
-0.0186749 0.00403538 0
-0.0135544 -0.00121041 0
-0.0131326 0.0269379 0
-0.0142197 0.0235904 0
0.0158999 -0.0220879 0
0.0110487 -0.0264806 0
-0.0234145 -0.0175938 0
-0.027738 -0.0196292 0
-0.0242123 0.00685917 0
-0.0285602 0.00384548 0
0.00227831 -0.0020495 0
0.00632205 -0.00660255 0
0.0120475 0.0232967 0
0.0149406 0.0176844 0
0.0239215 -0.0127454 0
0.0258893 -0.0155836 0
0.0188426 -0.0105564 0
0.0224349 -0.00711897 0
-0.026774 0.0177974 0
-0.0282454 0.0141984 0
-0.0037439 -0.0239056 0
0.0012771 -0.0268746 0
0.0217366 -0.00854664 0
0.0284803 -0.00675891 0
-0.00779273 0.0172284 0
-0.00697991 0.0127395 0
0.0021781 0.0254606 0
0.00315772 0.0211699 0
0.0030411 0.0123175 0
0.00669114 0.0147526 0
0.00285427 -0.0159328 0
0.000745614 -0.020022 0
0.00432689 0.0065238 0
0.00919578 0.00479841 0
-0.00553078 0.0275931 0
-0.00748248 0.0244581 0
-0.0223888 -0.0199538 0
-0.0180983 -0.0216528 0
0.00787918 0.0101093 0
0.0107449 0.0133937 0
0.00538143 0.0246527 0
0.00869716 0.0279096 0
0.00349175 0.000543262 0
-0.00310192 0.00149281 0
-0.0225509 0.024178 0
-0.0249636 0.0287863 0
0.0214537 0.0193855 0
0.0198931 0.0161063 0
-0.00983411 0.00350659 0
-0.0102946 0.000258906 0
0.0148558 -0.0115857 0
0.0114218 -0.0138971 0
-0.0100641 0.000741488 0
-0.0101293 -0.00265714 0
-0.000790742 -0.0135887 0
-0.00527326 -0.0123024 0
0.0240669 0.00544539 0
0.0284202 0.00770529 0
-0.0106939 0.00708764 0
-0.00679095 0.00682925 0
0.00598681 -0.0240355 0
0.00666647 -0.0279224 0
0.00646835 -0.0211205 0
0.010068 -0.0227612 0
0.025833 -0.0231 0
0.0285493 -0.0226199 0
0.0122462 -0.0063868 0
0.00895143 -0.00930002 0
0.0230935 0.027165 0
0.0282021 0.0285562 0
-0.0145966 0.0162726 0
-0.0151211 0.0200848 0
-0.0264057 -0.00815461 0
-0.0284233 -0.011241 0
-0.0159677 0.00890999 0
-0.0138993 0.00489527 0
-0.000666625 0.0103464 0
-0.00370946 0.0103542 0
-0.0195454 0.018403 0
-0.01881 0.0223351 0
0.0242515 0.0214317 0
0.0273362 0.0194635 0
-0.018706 -0.0154967 0
-0.0155597 -0.0176562 0
-0.0122472 -0.0250844 0
-0.0160322 -0.0256188 0
0.0153281 0.00670054 0
0.015824 0.00315964 0
0.0243076 0.00537718 0
0.0282255 0.00288108 0
0.022423 -0.0125903 0
0.0230131 -0.0158591 0
-0.011321 -0.0244054 0
-0.0143701 -0.0215033 0
-0.00136196 -0.00461098 0
-0.00402628 -0.00251483 0
-0.0144427 0.0110794 0
-0.0176397 0.0121412 0
-0.0239507 -0.00119145 0
-0.0251932 -0.00370688 0
0.0143973 0.0237381 0
0.0149737 0.0279686 0
0.0160677 0.00375389 0
0.0174026 0.000223522 0
-0.020858 0.0140179 0
-0.0246719 0.0119516 0
0.0201923 -0.0265823 0
0.0228872 -0.0266775 0
-0.015432 -0.00455918 0
-0.0120769 -0.00646598 0
-0.00779014 -0.0182473 0
-0.00899234 -0.0203115 0
0.000365731 0.0163449 0
-0.00200825 0.0135466 0
-0.00776978 0.013485 0
-0.00887195 0.0102717 0
-0.000370645 0.0174535 0
0.0042293 0.0182158 0
0.0132885 0.0191097 0
0.0123465 0.0163607 0
0.0182993 0.022862 0
0.0175984 0.0196927 0
0.00713951 -0.0265112 0
0.00932683 -0.028435 0
-0.0251064 0.0271344 0
-0.028231 0.0281534 0
0.0167857 -0.0102994 0
0.0186402 -0.00692236 0
0.0166209 0.0120053 0
0.0196534 0.0120433 0
-0.00210781 0.00752854 0
-0.0043947 0.00436292 0
0.0217931 0.00916027 0
0.0248317 0.0109773 0
0.0254349 -0.000458609 0
0.0271413 -0.000211284 0
-0.00981826 -0.0249274 0
-0.0116594 -0.0280696 0
-0.0173137 0.0278157 0
-0.0203156 0.0277079 0
0.00961265 0.0237612 0
0.0120579 0.0280063 0
-0.0103489 -0.0168814 0
-0.0127156 -0.014525 0
-0.00153322 0.0223686 0
-0.00529386 0.0226147 0
0.0205175 -0.0194601 0
0.0197645 -0.0227104 0
-0.0214751 0.0074309 0
-0.0226372 0.00956496 0
LINES 237 711
2 172 1
2 120 2
2 40 3
2 232 4
2 36 5
2 20 6
2 156 7
2 112 8
2 160 9
2 116 10
2 176 11
2 54 12
2 148 13
2 60 14
2 170 15
2 188 16
2 38 17
2 78 18
2 48 19
2 0 20
2 76 21
2 98 22
2 42 23
2 162 24
2 96 25
2 138 26
2 84 27
2 154 28
2 102 29
2 8 30
2 136 31
2 74 32
2 222 33
2 126 34
2 216 35
2 166 36
2 56 37
2 134 38
2 38 39
2 234 40
2 152 41
2 182 42
2 42 43
2 128 44
2 44 45
2 64 46
2 108 47
2 124 48
2 48 49
2 88 50
2 186 51
2 66 52
2 52 53
2 22 54
2 54 55
2 72 56
2 106 57
2 18 58
2 58 59
2 50 60
2 196 61
2 200 62
2 218 63
2 142 64
2 230 65
2 2 66
2 66 67
2 118 68
2 68 69
2 4 70
2 70 71
2 36 72
2 132 73
2 174 74
2 220 75
2 122 76
2 226 77
2 14 78
2 78 79
2 208 80
2 168 81
2 46 82
2 82 83
2 92 84
2 194 85
2 158 86
2 192 87
2 24 88
2 88 89
2 76 90
2 90 91
2 26 92
2 92 93
2 58 94
2 94 95
2 236 96
2 96 97
2 130 98
2 98 99
2 228 100
2 206 101
2 178 102
2 102 103
2 214 104
2 110 105
2 56 106
2 106 107
2 46 108
2 108 109
2 104 110
2 110 111
2 70 112
2 202 113
2 6 114
2 114 115
2 62 116
2 116 117
2 12 118
2 118 119
2 10 120
2 120 121
2 20 122
2 122 123
2 94 124
2 124 125
2 10 126
2 126 127
2 114 128
2 128 129
2 2 130
2 130 131
2 72 132
2 212 133
2 80 134
2 134 135
2 146 136
2 140 137
2 28 138
2 138 139
2 136 140
2 140 141
2 12 142
2 142 143
2 32 144
2 144 145
2 30 146
2 146 147
2 150 148
2 210 149
2 68 150
2 150 151
2 40 152
2 152 153
2 52 154
2 154 155
2 16 156
2 156 157
2 8 158
2 158 159
2 14 160
2 160 161
2 184 162
2 162 163
2 62 164
2 164 165
2 86 166
2 166 167
2 80 168
2 168 169
2 18 170
2 170 171
2 180 172
2 172 173
2 34 174
2 190 175
2 144 176
2 176 177
2 104 178
2 178 179
2 224 180
2 180 181
2 22 182
2 182 183
2 30 184
2 184 185
2 50 186
2 186 187
2 100 188
2 188 189
2 174 190
2 190 191
2 86 192
2 192 193
2 84 194
2 194 195
2 60 196
2 196 197
2 64 198
2 198 199
2 204 200
2 200 201
2 112 202
2 202 203
2 4 204
2 204 205
2 100 206
2 206 207
2 16 208
2 208 209
2 148 210
2 210 211
2 132 212
2 212 213
2 28 214
2 214 215
2 34 216
2 216 217
2 164 218
2 218 219
2 74 220
2 220 221
2 32 222
2 222 223
2 82 224
2 224 225
2 90 226
2 226 227
2 44 228
2 228 229
2 198 230
2 230 231
2 6 232
2 232 233
2 26 234
2 234 235
2 24 236
2 236 237
CELL_DATA 237
SCALARS radius float
LOOKUP_TABLE default
0.186037
0.867719
0.245198
1.10088
0.186661
1.14381
0.173657
0.777598
0.210354
0.930899
0.161957
0.662721
0.174352
0.585178
0.206058
0.476255
0.205007
0.540377
0.336196
1.15471
0.129617
0.697084
0.201154
0.663291
0.221994
0.553135
0.269347
0.646294
0.263462
0.703525
0.216427
0.429789
0.276862
0.519706
0.203021
0.447361
0.243291
0.330889
0.30225
0.413207
0.331067
0.301054
0.267524
0.528018
0.199956
0.517209
0.222382
0.410879
0.315368
0.627495
0.22259
0.661145
0.221565
0.672469
0.235336
0.349399
0.215777
0.501922
0.26167
0.609049
0.17593
0.941864
0.157954
0.568322
0.221343
0.667035
0.19825
0.442064
0.232596
0.787688
0.184384
0.436255
0.18259
0.468108
0.159885
0.335789
0.181551
0.555617
0.239459
0.41988
0.227809
0.469647
0.25832
0.402315
0.272292
0.487757
0.164422
0.636901
0.22426
0.329224
0.214116
0.44179
0.276374
0.476999
0.263401
0.29985
0.252086
0.703109
0.206915
0.509735
0.19713
0.330301
0.260845
0.434891
0.200225
0.304574
0.263077
0.32638
0.287524
0.318701
0.289819
0.784306
0.154127
0.540568
0.171321
0.933014
0.176633
0.460555
0.224401
0.870693
0.188897
0.350838
0.174593
0.448565
0.275413
0.527301
0.184147
0.53477
0.178841
0.709099
0.207697
0.343054
0.234155
0.361098
0.221424
0.329397
0.172325
0.562917
0.20907
0.294733
0.27362
0.578277
0.214116
0.353335
0.270257
0.353486
0.203511
0.386037
0.269961
0.419464
0.253424
0.382151
0.269263
0.652745
0.201353
0.299216
0.278289
0.495933
0.18104
0.306736
0.269399
0.668508
0.19075
0.285754
0.183534
0.459906
0.197853
0.299778
0.247263
0.315304
0.282717
0.341945
0.322506
0.492829
0.153073
0.289937
0.272006
0.36811
0.240122
0.405989
0.29976
0.325954
0.194392
0.672424
0.174137
0.27657
0.21635
0.486699
0.193665
0.257753
0.23833
0.265734
0.242835
0.357203
0.293908
0.294479
0.271855
0.35623
0.220558
0.943572
0.165742
0.230662
0.204968
0.945577
0.175084
0.257919
0.211768
0.433092
0.193188
0.373799
0.319304
0.324865
0.277837
0.450749
0.210516
0.274445
0.230856
0.257887
0.236394
0.285145
0.267295
0.327969
0.241332
0.442001
0.268856
0.295746
0.270915
0.518281
0.189208
0.325466
0.286968
1.10206
0.162878
0.436221
0.231816
0.322246
0.186656
