# vtk DataFile Version 3.0
Tree
ASCII
DATASET POLYDATA
POINTS 4 float
0 0.0287941 0
-0.0126607 -0.0251748 0
0.00423547 0.00213237 0
0.0259787 -0.0201673 0
LINES 3 9
2 2 1
2 0 2
2 2 3
CELL_DATA 3
SCALARS radius float
LOOKUP_TABLE default
0.8623
1.08231
0.855739
