# vtk DataFile Version 3.0
Tree
ASCII
DATASET POLYDATA
POINTS 74 float
0 0.0287941 0
-0.0126607 -0.0251748 0
0.00423547 0.00213237 0
0.0259787 -0.0201673 0
-0.00208886 0.02004 0
-0.0230888 0.017684 0
-0.000626657 0.0261679 0
0.0234609 0.0278788 0
-0.0113544 0.0154728 0
-0.0277715 -0.00803917 0
0.00440476 0.0102646 0
0.0248694 0.00521801 0
0.000584411 -0.0118647 0
0.00567841 -0.024451 0
-0.0213202 -0.0047847 0
-0.018803 -0.0165692 0
0.0163989 0.0241142 0
0.025768 0.016389 0
-0.0213376 -0.0122665 0
-0.0277377 -0.0287649 0
-0.000187997 0.0280062 0
-0.0109378 0.0282299 0
0.00143954 -0.00384173 0
-0.00660784 -0.00554711 0
-0.0170218 0.00741038 0
-0.0269212 0.00852779 0
0.0159869 -0.0152911 0
0.0151431 -0.0282376 0
0.014371 -0.00999766 0
0.0271084 -0.0110833 0
-0.013508 0.0124091 0
-0.00722621 0.00214039 0
0.0203776 0.00404537 0
0.0263683 -0.00329567 0
0.0117956 0.00856903 0
0.0172645 0.0137013 0
-0.0204826 0.0190241 0
-0.0271918 0.024997 0
0.0242807 0.0167011 0
0.028487 0.010882 0
0.0227695 -0.0205966 0
0.0287911 -0.0286667 0
-0.0043784 -0.00657035 0
-0.0101418 -0.0116378 0
0.00675429 0.0243065 0
0.00953057 0.0180069 0
-0.00509265 -0.0216583 0
-0.00378697 -0.0259925 0
-0.02276 -0.0217607 0
-0.0191033 -0.0273189 0
-0.0206155 7.34199e-05 0
-0.0270325 -0.000571521 0
0.0113355 -0.00483929 0
0.0180277 -0.0034772 0
0.000840949 -0.0094578 0
0.00760505 -0.0139596 0
-0.0243443 0.0201667 0
-0.0285237 0.0179851 0
-0.0226881 -0.015204 0
-0.0282408 -0.0149384 0
-0.0208269 -0.00138402 0
-0.0148962 -0.00497277 0
0.00245667 0.0131973 0
-0.00190827 0.00677609 0
-0.00399943 -0.0176114 0
-0.0114766 -0.0172359 0
0.00855223 -0.00107001 0
0.0132622 0.000671196 0
0.00581067 -0.0186696 0
0.0095106 -0.0193764 0
-0.00560977 0.0183045 0
-0.00983804 0.0219098 0
-0.0216729 0.0201879 0
-0.0215373 0.0251335 0
LINES 73 219
2 46 1
2 10 2
2 40 3
2 6 4
2 36 5
2 20 6
2 16 7
2 70 8
2 14 9
2 62 10
2 32 11
2 54 12
2 68 13
2 60 14
2 18 15
2 44 16
2 38 17
2 14 18
2 48 19
2 0 20
2 20 21
2 2 22
2 42 23
2 30 24
2 24 25
2 28 26
2 26 27
2 52 28
2 28 29
2 8 30
2 30 31
2 34 32
2 32 33
2 10 34
2 34 35
2 8 36
2 56 37
2 16 38
2 38 39
2 26 40
2 40 41
2 22 42
2 42 43
2 6 44
2 44 45
2 64 46
2 46 47
2 58 48
2 48 49
2 24 50
2 50 51
2 66 52
2 52 53
2 22 54
2 54 55
2 72 56
2 56 57
2 18 58
2 58 59
2 50 60
2 60 61
2 4 62
2 62 63
2 12 64
2 64 65
2 2 66
2 66 67
2 12 68
2 68 69
2 4 70
2 70 71
2 36 72
2 72 73
CELL_DATA 73
SCALARS radius float
LOOKUP_TABLE default
0.415562
0.867757
0.337914
1.10103
0.258724
1.13775
0.3142
0.808862
0.32843
0.916613
0.321037
0.638806
0.380858
0.656183
0.328654
0.491363
0.275178
0.627524
0.450573
1.14329
0.278594
0.712748
0.27211
0.719987
0.316348
0.577289
0.398841
0.625032
0.372747
0.740105
0.318037
0.447456
0.383723
0.488672
0.300395
0.498406
0.345539
0.444146
0.405705
0.505203
0.448734
0.407249
0.361891
0.516849
0.268855
0.489268
0.356632
0.550663
0.422659
0.699025
0.303994
0.647741
0.302179
0.665346
0.323516
0.426317
0.330879
0.595909
0.354722
0.67931
0.313932
0.924586
0.272662
0.548901
0.36407
0.662929
0.269483
0.456771
0.342154
0.816504
0.247392
0.47399
0.307261
