# vtk DataFile Version 4.2
vtk output
ASCII
DATASET POLYDATA
POINTS 335 float
-0.05 0.1 0 -0.049 0.1 0 -0.048 0.1 0 
-0.047 0.1 0 -0.046 0.1 0 -0.045 0.1 0 
-0.044 0.1 0 -0.043 0.1 0 -0.042 0.1 0 
-0.041 0.1 0 -0.04 0.1 0 -0.039 0.1 0 
-0.038 0.1 0 -0.037 0.1 0 -0.036 0.1 0 
-0.035 0.1 0 -0.034 0.1 0 -0.033 0.1 0 
-0.032 0.1 0 -0.031 0.1 0 -0.03 0.1 0 
-0.029 0.1 0 -0.028 0.1 0 -0.027 0.1 0 
-0.026 0.1 0 -0.025 0.1 0 -0.024 0.1 0 
-0.023 0.1 0 -0.022 0.1 0 -0.021 0.1 0 
-0.02 0.1 0 -0.019 0.1 0 -0.018 0.1 0 
-0.017 0.1 0 -0.016 0.1 0 -0.015 0.1 0 
-0.014 0.1 0 -0.013 0.1 0 -0.012 0.1 0 
-0.011 0.1 0 -0.01 0.1 0 -0.009 0.1 0 
-0.008 0.1 0 -0.007 0.1 0 -0.006 0.1 0 
-0.005 0.1 0 -0.004 0.1 0 -0.003 0.1 0 
-0.002 0.1 0 -0.001 0.1 0 0 0.1 0 
0.001 0.1 0 0.002 0.1 0 0.003 0.1 0 
0.004 0.1 0 0.005 0.1 0 0.006 0.1 0 
0.007 0.1 0 0.008 0.1 0 0.009 0.1 0 
0.01 0.1 0 0.011 0.1 0 0.012 0.1 0 
0.013 0.1 0 0.014 0.1 0 0.015 0.1 0 
0.016 0.1 0 0.017 0.1 0 0.018 0.1 0 
0.019 0.1 0 0.02 0.1 0 0.021 0.1 0 
0.022 0.1 0 0.023 0.1 0 0.024 0.1 0 
0.025 0.1 0 0.026 0.1 0 0.027 0.1 0 
0.028 0.1 0 0.029 0.1 0 0.03 0.1 0 
0.031 0.1 0 0.032 0.1 0 0.033 0.1 0 
0.034 0.1 0 0.035 0.1 0 0.036 0.1 0 
0.037 0.1 0 0.038 0.1 0 0.039 0.1 0 
0.04 0.1 0 0.041 0.1 0 0.042 0.1 0 
0.043 0.1 0 0.044 0.1 0 0.045 0.1 0 
0.046 0.1 0 0.047 0.1 0 0.048 0.1 0 
0.049 0.1 0 0.05 0.1 0 0.0507071 0.100707 0 
0.0514142 0.101414 0 0.0521213 0.102121 0 0.0528284 0.102828 0 
0.0535355 0.103536 0 0.0542426 0.104243 0 0.0549497 0.10495 0 
0.0556569 0.105657 0 0.056364 0.106364 0 0.0570711 0.107071 0 
0.0577782 0.107778 0 0.0584853 0.108485 0 0.0591924 0.109192 0 
0.0598995 0.109899 0 0.0606066 0.110607 0 0.0613137 0.111314 0 
0.0620208 0.112021 0 0.0627279 0.112728 0 0.063435 0.113435 0 
0.0641421 0.114142 0 0.0648492 0.114849 0 0.0655563 0.115556 0 
0.0662635 0.116263 0 0.0669706 0.116971 0 0.0676777 0.117678 0 
0.0683848 0.118385 0 0.0690919 0.119092 0 0.069799 0.119799 0 
0.0705061 0.120506 0 0.0712132 0.121213 0 0.0719203 0.12192 0 
0.0726274 0.122627 0 0.0733345 0.123335 0 0.0740416 0.124042 0 
0.0747487 0.124749 0 0.0751961 0.125981 0 0.0753922 0.126961 0 
0.0755883 0.127942 0 0.0757845 0.128922 0 0.0759806 0.129903 0 
0.0761767 0.130883 0 0.0763728 0.131864 0 0.0765689 0.132845 0 
0.076765 0.133825 0 0.0769612 0.134806 0 0.0771573 0.135786 0 
0.0773534 0.136767 0 0.0775495 0.137748 0 0.0777456 0.138728 0 
0.0779417 0.139709 0 0.0781379 0.140689 0 0.078334 0.14167 0 
0.0785301 0.14265 0 0.0787262 0.143631 0 0.0789223 0.144612 0 
0.0791184 0.145592 0 0.0793146 0.146573 0 0.0795107 0.147553 0 
0.0797068 0.148534 0 0.0799029 0.149515 0 0.075995 0.1251 0 
0.0769901 0.125199 0 0.0779851 0.125299 0 0.0789801 0.125398 0 
0.0799752 0.125498 0 0.0809702 0.125597 0 0.0819653 0.125697 0 
0.0829603 0.125796 0 0.0839553 0.125896 0 0.0849504 0.125995 0 
0.0859454 0.126095 0 0.0869404 0.126194 0 0.0879355 0.126294 0 
0.0889305 0.126393 0 0.0899256 0.126493 0 0.0909206 0.126592 0 
0.0919156 0.126692 0 0.0929107 0.126791 0 0.0939057 0.126891 0 
0.0949007 0.12699 0 0.0958958 0.12709 0 0.0968908 0.127189 0 
0.0978859 0.127289 0 0.0988809 0.127388 0 0.0998759 0.127488 0 
0.100871 0.127587 0 0.101866 0.127687 0 0.102861 0.127786 0 
0.103856 0.127886 0 0.104851 0.127985 0 0.105846 0.128085 0 
0.106841 0.128184 0 0.107836 0.128284 0 0.108831 0.128383 0 
0.109826 0.128483 0 0.110821 0.128582 0 0.111816 0.128682 0 
0.112811 0.128781 0 0.113806 0.128881 0 0.114801 0.12898 0 
0.115797 0.12908 0 0.116792 0.129179 0 0.117787 0.129279 0 
0.118782 0.129378 0 0.119777 0.129478 0 0.120772 0.129577 0 
0.121767 0.129677 0 0.122762 0.129776 0 0.123757 0.129876 0 
0.124752 0.129975 0 0.0507071 0.0992929 0 0.0514142 0.0985858 0 
0.0521213 0.0978787 0 0.0528284 0.0971716 0 0.0535355 0.0964645 0 
0.0542426 0.0957574 0 0.0549497 0.0950503 0 0.0556569 0.0943431 0 
0.056364 0.093636 0 0.0570711 0.0929289 0 0.0577782 0.0922218 0 
0.0584853 0.0915147 0 0.0591924 0.0908076 0 0.0598995 0.0901005 0 
0.0606066 0.0893934 0 0.0613137 0.0886863 0 0.0620208 0.0879792 0 
0.0627279 0.0872721 0 0.063435 0.086565 0 0.0641421 0.0858579 0 
0.0648492 0.0851508 0 0.0655563 0.0844437 0 0.0662635 0.0837365 0 
0.0669706 0.0830294 0 0.0676777 0.0823223 0 0.0683848 0.0816152 0 
0.0690919 0.0809081 0 0.069799 0.080201 0 0.0705061 0.0794939 0 
0.0712132 0.0787868 0 0.0719203 0.0780797 0 0.0726274 0.0773726 0 
0.0733345 0.0766655 0 0.0740416 0.0759584 0 0.0747487 0.0752513 0 
0.075995 0.0749005 0 0.0769901 0.074801 0 0.0779851 0.0747015 0 
0.0789801 0.074602 0 0.0799752 0.0745025 0 0.0809702 0.074403 0 
0.0819653 0.0743035 0 0.0829603 0.074204 0 0.0839553 0.0741045 0 
0.0849504 0.074005 0 0.0859454 0.0739055 0 0.0869404 0.073806 0 
0.0879355 0.0737065 0 0.0889305 0.0736069 0 0.0899256 0.0735074 0 
0.0909206 0.0734079 0 0.0919156 0.0733084 0 0.0929107 0.0732089 0 
0.0939057 0.0731094 0 0.0949007 0.0730099 0 0.0958958 0.0729104 0 
0.0968908 0.0728109 0 0.0978859 0.0727114 0 0.0988809 0.0726119 0 
0.0998759 0.0725124 0 0.100871 0.0724129 0 0.101866 0.0723134 0 
0.102861 0.0722139 0 0.103856 0.0721144 0 0.104851 0.0720149 0 
0.105846 0.0719154 0 0.106841 0.0718159 0 0.107836 0.0717164 0 
0.108831 0.0716169 0 0.109826 0.0715174 0 0.110821 0.0714179 0 
0.111816 0.0713184 0 0.112811 0.0712189 0 0.113806 0.0711194 0 
0.114801 0.0710199 0 0.115797 0.0709203 0 0.116792 0.0708208 0 
0.117787 0.0707213 0 0.118782 0.0706218 0 0.119777 0.0705223 0 
0.120772 0.0704228 0 0.121767 0.0703233 0 0.122762 0.0702238 0 
0.123757 0.0701243 0 0.124752 0.0700248 0 0.0756402 0.0742318 0 
0.0762804 0.0734636 0 0.0769206 0.0726953 0 0.0775607 0.0719271 0 
0.0782009 0.0711589 0 0.0788411 0.0703907 0 0.0794813 0.0696225 0 
0.0801215 0.0688542 0 0.0807617 0.068086 0 0.0814018 0.0673178 0 
0.082042 0.0665496 0 0.0826822 0.0657813 0 0.0833224 0.0650131 0 
0.0839626 0.0642449 0 0.0846028 0.0634767 0 0.0852429 0.0627085 0 
0.0858831 0.0619402 0 0.0865233 0.061172 0 0.0871635 0.0604038 0 
0.0878037 0.0596356 0 0.0884439 0.0588674 0 0.0890841 0.0580991 0 
0.0897242 0.0573309 0 0.0903644 0.0565627 0 0.0910046 0.0557945 0 
0.0916448 0.0550262 0 0.092285 0.054258 0 0.0929252 0.0534898 0 
0.0935654 0.0527216 0 0.0942055 0.0519534 0 0.0948457 0.0511851 0 
0.0954859 0.0504169 0 0.0961261 0.0496487 0 0.0967663 0.0488805 0 
0.0974065 0.0481123 0 0.0980466 0.047344 0 0.0986868 0.0465758 0 
0.099327 0.0458076 0 0.0999672 0.0450394 0 
METADATA
INFORMATION 2
NAME L2_NORM_RANGE LOCATION vtkDataArray
DATA 2 0.1 0.180157 
NAME L2_NORM_FINITE_RANGE LOCATION vtkDataArray
DATA 2 0.1 0.180157 

LINES 668 2004
2 0 1 
2 1 0 
2 1 2 
2 2 1 
2 2 3 
2 3 2 
2 3 4 
2 4 3 
2 4 5 
2 5 4 
2 5 6 
2 6 5 
2 6 7 
2 7 6 
2 7 8 
2 8 7 
2 8 9 
2 9 8 
2 9 10 
2 10 9 
2 10 11 
2 11 10 
2 11 12 
2 12 11 
2 12 13 
2 13 12 
2 13 14 
2 14 13 
2 14 15 
2 15 14 
2 15 16 
2 16 15 
2 16 17 
2 17 16 
2 17 18 
2 18 17 
2 18 19 
2 19 18 
2 19 20 
2 20 19 
2 20 21 
2 21 20 
2 21 22 
2 22 21 
2 22 23 
2 23 22 
2 23 24 
2 24 23 
2 24 25 
2 25 24 
2 25 26 
2 26 25 
2 26 27 
2 27 26 
2 27 28 
2 28 27 
2 28 29 
2 29 28 
2 29 30 
2 30 29 
2 30 31 
2 31 30 
2 31 32 
2 32 31 
2 32 33 
2 33 32 
2 33 34 
2 34 33 
2 34 35 
2 35 34 
2 35 36 
2 36 35 
2 36 37 
2 37 36 
2 37 38 
2 38 37 
2 38 39 
2 39 38 
2 39 40 
2 40 39 
2 40 41 
2 41 40 
2 41 42 
2 42 41 
2 42 43 
2 43 42 
2 43 44 
2 44 43 
2 44 45 
2 45 44 
2 45 46 
2 46 45 
2 46 47 
2 47 46 
2 47 48 
2 48 47 
2 48 49 
2 49 48 
2 49 50 
2 50 49 
2 50 51 
2 51 50 
2 51 52 
2 52 51 
2 52 53 
2 53 52 
2 53 54 
2 54 53 
2 54 55 
2 55 54 
2 55 56 
2 56 55 
2 56 57 
2 57 56 
2 57 58 
2 58 57 
2 58 59 
2 59 58 
2 59 60 
2 60 59 
2 60 61 
2 61 60 
2 61 62 
2 62 61 
2 62 63 
2 63 62 
2 63 64 
2 64 63 
2 64 65 
2 65 64 
2 65 66 
2 66 65 
2 66 67 
2 67 66 
2 67 68 
2 68 67 
2 68 69 
2 69 68 
2 69 70 
2 70 69 
2 70 71 
2 71 70 
2 71 72 
2 72 71 
2 72 73 
2 73 72 
2 73 74 
2 74 73 
2 74 75 
2 75 74 
2 75 76 
2 76 75 
2 76 77 
2 77 76 
2 77 78 
2 78 77 
2 78 79 
2 79 78 
2 79 80 
2 80 79 
2 80 81 
2 81 80 
2 81 82 
2 82 81 
2 82 83 
2 83 82 
2 83 84 
2 84 83 
2 84 85 
2 85 84 
2 85 86 
2 86 85 
2 86 87 
2 87 86 
2 87 88 
2 88 87 
2 88 89 
2 89 88 
2 89 90 
2 90 89 
2 90 91 
2 91 90 
2 91 92 
2 92 91 
2 92 93 
2 93 92 
2 93 94 
2 94 93 
2 94 95 
2 95 94 
2 95 96 
2 96 95 
2 96 97 
2 97 96 
2 97 98 
2 98 97 
2 98 99 
2 99 98 
2 99 100 
2 100 99 
2 100 101 
2 100 211 
2 101 100 
2 101 102 
2 102 101 
2 102 103 
2 103 102 
2 103 104 
2 104 103 
2 104 105 
2 105 104 
2 105 106 
2 106 105 
2 106 107 
2 107 106 
2 107 108 
2 108 107 
2 108 109 
2 109 108 
2 109 110 
2 110 109 
2 110 111 
2 111 110 
2 111 112 
2 112 111 
2 112 113 
2 113 112 
2 113 114 
2 114 113 
2 114 115 
2 115 114 
2 115 116 
2 116 115 
2 116 117 
2 117 116 
2 117 118 
2 118 117 
2 118 119 
2 119 118 
2 119 120 
2 120 119 
2 120 121 
2 121 120 
2 121 122 
2 122 121 
2 122 123 
2 123 122 
2 123 124 
2 124 123 
2 124 125 
2 125 124 
2 125 126 
2 126 125 
2 126 127 
2 127 126 
2 127 128 
2 128 127 
2 128 129 
2 129 128 
2 129 130 
2 130 129 
2 130 131 
2 131 130 
2 131 132 
2 132 131 
2 132 133 
2 133 132 
2 133 134 
2 134 133 
2 134 135 
2 135 134 
2 135 136 
2 135 161 
2 136 135 
2 136 137 
2 137 136 
2 137 138 
2 138 137 
2 138 139 
2 139 138 
2 139 140 
2 140 139 
2 140 141 
2 141 140 
2 141 142 
2 142 141 
2 142 143 
2 143 142 
2 143 144 
2 144 143 
2 144 145 
2 145 144 
2 145 146 
2 146 145 
2 146 147 
2 147 146 
2 147 148 
2 148 147 
2 148 149 
2 149 148 
2 149 150 
2 150 149 
2 150 151 
2 151 150 
2 151 152 
2 152 151 
2 152 153 
2 153 152 
2 153 154 
2 154 153 
2 154 155 
2 155 154 
2 155 156 
2 156 155 
2 156 157 
2 157 156 
2 157 158 
2 158 157 
2 158 159 
2 159 158 
2 159 160 
2 160 159 
2 161 135 
2 161 162 
2 162 161 
2 162 163 
2 163 162 
2 163 164 
2 164 163 
2 164 165 
2 165 164 
2 165 166 
2 166 165 
2 166 167 
2 167 166 
2 167 168 
2 168 167 
2 168 169 
2 169 168 
2 169 170 
2 170 169 
2 170 171 
2 171 170 
2 171 172 
2 172 171 
2 172 173 
2 173 172 
2 173 174 
2 174 173 
2 174 175 
2 175 174 
2 175 176 
2 176 175 
2 176 177 
2 177 176 
2 177 178 
2 178 177 
2 178 179 
2 179 178 
2 179 180 
2 180 179 
2 180 181 
2 181 180 
2 181 182 
2 182 181 
2 182 183 
2 183 182 
2 183 184 
2 184 183 
2 184 185 
2 185 184 
2 185 186 
2 186 185 
2 186 187 
2 187 186 
2 187 188 
2 188 187 
2 188 189 
2 189 188 
2 189 190 
2 190 189 
2 190 191 
2 191 190 
2 191 192 
2 192 191 
2 192 193 
2 193 192 
2 193 194 
2 194 193 
2 194 195 
2 195 194 
2 195 196 
2 196 195 
2 196 197 
2 197 196 
2 197 198 
2 198 197 
2 198 199 
2 199 198 
2 199 200 
2 200 199 
2 200 201 
2 201 200 
2 201 202 
2 202 201 
2 202 203 
2 203 202 
2 203 204 
2 204 203 
2 204 205 
2 205 204 
2 205 206 
2 206 205 
2 206 207 
2 207 206 
2 207 208 
2 208 207 
2 208 209 
2 209 208 
2 209 210 
2 210 209 
2 211 100 
2 211 212 
2 212 211 
2 212 213 
2 213 212 
2 213 214 
2 214 213 
2 214 215 
2 215 214 
2 215 216 
2 216 215 
2 216 217 
2 217 216 
2 217 218 
2 218 217 
2 218 219 
2 219 218 
2 219 220 
2 220 219 
2 220 221 
2 221 220 
2 221 222 
2 222 221 
2 222 223 
2 223 222 
2 223 224 
2 224 223 
2 224 225 
2 225 224 
2 225 226 
2 226 225 
2 226 227 
2 227 226 
2 227 228 
2 228 227 
2 228 229 
2 229 228 
2 229 230 
2 230 229 
2 230 231 
2 231 230 
2 231 232 
2 232 231 
2 232 233 
2 233 232 
2 233 234 
2 234 233 
2 234 235 
2 235 234 
2 235 236 
2 236 235 
2 236 237 
2 237 236 
2 237 238 
2 238 237 
2 238 239 
2 239 238 
2 239 240 
2 240 239 
2 240 241 
2 241 240 
2 241 242 
2 242 241 
2 242 243 
2 243 242 
2 243 244 
2 244 243 
2 244 245 
2 245 244 
2 245 246 
2 245 296 
2 246 245 
2 246 247 
2 247 246 
2 247 248 
2 248 247 
2 248 249 
2 249 248 
2 249 250 
2 250 249 
2 250 251 
2 251 250 
2 251 252 
2 252 251 
2 252 253 
2 253 252 
2 253 254 
2 254 253 
2 254 255 
2 255 254 
2 255 256 
2 256 255 
2 256 257 
2 257 256 
2 257 258 
2 258 257 
2 258 259 
2 259 258 
2 259 260 
2 260 259 
2 260 261 
2 261 260 
2 261 262 
2 262 261 
2 262 263 
2 263 262 
2 263 264 
2 264 263 
2 264 265 
2 265 264 
2 265 266 
2 266 265 
2 266 267 
2 267 266 
2 267 268 
2 268 267 
2 268 269 
2 269 268 
2 269 270 
2 270 269 
2 270 271 
2 271 270 
2 271 272 
2 272 271 
2 272 273 
2 273 272 
2 273 274 
2 274 273 
2 274 275 
2 275 274 
2 275 276 
2 276 275 
2 276 277 
2 277 276 
2 277 278 
2 278 277 
2 278 279 
2 279 278 
2 279 280 
2 280 279 
2 280 281 
2 281 280 
2 281 282 
2 282 281 
2 282 283 
2 283 282 
2 283 284 
2 284 283 
2 284 285 
2 285 284 
2 285 286 
2 286 285 
2 286 287 
2 287 286 
2 287 288 
2 288 287 
2 288 289 
2 289 288 
2 289 290 
2 290 289 
2 290 291 
2 291 290 
2 291 292 
2 292 291 
2 292 293 
2 293 292 
2 293 294 
2 294 293 
2 294 295 
2 295 294 
2 296 245 
2 296 297 
2 297 296 
2 297 298 
2 298 297 
2 298 299 
2 299 298 
2 299 300 
2 300 299 
2 300 301 
2 301 300 
2 301 302 
2 302 301 
2 302 303 
2 303 302 
2 303 304 
2 304 303 
2 304 305 
2 305 304 
2 305 306 
2 306 305 
2 306 307 
2 307 306 
2 307 308 
2 308 307 
2 308 309 
2 309 308 
2 309 310 
2 310 309 
2 310 311 
2 311 310 
2 311 312 
2 312 311 
2 312 313 
2 313 312 
2 313 314 
2 314 313 
2 314 315 
2 315 314 
2 315 316 
2 316 315 
2 316 317 
2 317 316 
2 317 318 
2 318 317 
2 318 319 
2 319 318 
2 319 320 
2 320 319 
2 320 321 
2 321 320 
2 321 322 
2 322 321 
2 322 323 
2 323 322 
2 323 324 
2 324 323 
2 324 325 
2 325 324 
2 325 326 
2 326 325 
2 326 327 
2 327 326 
2 327 328 
2 328 327 
2 328 329 
2 329 328 
2 329 330 
2 330 329 
2 330 331 
2 331 330 
2 331 332 
2 332 331 
2 332 333 
2 333 332 
2 333 334 
2 334 333 

POINT_DATA 335
FIELD FieldData 1
Scalars_ 1 335 float
94 94 94 94 94 94 94 94 94 
94 94 94 94 94 94 94 94 94 
94 96 96 96 96 96 96 96 94 
94 94 94 94 94 94 94 94 94 
94 94 94 94 94 94 94 94 94 
94 94 94 94 94 94 94 94 94 
94 94 94 92 92 92 94 94 94 
94 94 94 94 94 94 94 94 94 
94 94 94 94 94 94 94 94 94 
94 94 94 94 94 94 94 92 92 
92 92 92 92 92 94 94 94 94 
94 94 94 94 94 94 94 94 94 
94 94 94 94 94 94 94 94 94 
92 92 92 92 92 92 92 92 92 
94 94 94 94 94 94 94 94 94 
94 94 94 94 94 94 94 94 94 
94 92 92 92 92 92 92 92 92 
94 94 94 94 94 196 226 244 94 
94 94 94 94 94 94 94 94 92 
92 92 92 92 92 92 92 92 92 
92 92 94 94 94 94 94 94 94 
94 94 94 94 94 94 94 94 94 
94 94 94 92 92 92 92 92 92 
94 198 226 244 94 94 94 94 94 
94 94 94 94 94 94 94 94 94 
94 94 92 92 92 92 92 92 92 
92 92 94 94 94 94 94 94 94 
94 94 94 94 94 94 94 94 94 
94 94 94 92 92 92 92 92 92 
92 92 92 92 92 92 94 94 94 
94 94 94 94 94 94 94 94 94 
94 94 94 94 94 94 94 92 92 
92 92 92 92 94 198 226 244 94 
94 94 94 94 94 94 94 94 92 
92 92 92 92 92 92 92 92 92 
92 92 94 94 94 94 94 94 94 
94 94 94 94 94 94 94 96 198 
228 244 
METADATA
INFORMATION 0

