# vtk DataFile Version 4.2
vtk output
ASCII
DATASET POLYDATA
POINTS 204 float
-0.025 0.05 0 -0.024 0.05 0 -0.023 0.05 0 
-0.022 0.05 0 -0.021 0.05 0 -0.02 0.05 0 
-0.019 0.05 0 -0.018 0.05 0 -0.017 0.05 0 
-0.016 0.05 0 -0.015 0.05 0 -0.014 0.05 0 
-0.013 0.05 0 -0.012 0.05 0 -0.011 0.05 0 
-0.01 0.05 0 -0.009 0.05 0 -0.008 0.05 0 
-0.007 0.05 0 -0.006 0.05 0 -0.005 0.05 0 
-0.004 0.05 0 -0.003 0.05 0 -0.002 0.05 0 
-0.001 0.05 0 0 0.05 0 0.001 0.05 0 
0.002 0.05 0 0.003 0.05 0 0.004 0.05 0 
0.005 0.05 0 0.006 0.05 0 0.007 0.05 0 
0.008 0.05 0 0.009 0.05 0 0.01 0.05 0 
0.011 0.05 0 0.012 0.05 0 0.013 0.05 0 
0.014 0.05 0 0.015 0.05 0 0.016 0.05 0 
0.017 0.05 0 0.018 0.05 0 0.019 0.05 0 
0.02 0.05 0 0.021 0.05 0 0.022 0.05 0 
0.023 0.05 0 0.024 0.05 0 0.025 0.05 0 
0.0257071 0.0507071 0 0.0264142 0.0514142 0 0.0271213 0.0521213 0 
0.0278284 0.0528284 0 0.0285355 0.0535355 0 0.0292426 0.0542426 0 
0.0299497 0.0549497 0 0.0306569 0.0556569 0 0.031364 0.056364 0 
0.0320711 0.0570711 0 0.0327782 0.0577782 0 0.0334853 0.0584853 0 
0.0341924 0.0591924 0 0.0348995 0.0598995 0 0.0356066 0.0606066 0 
0.0363137 0.0613137 0 0.0370208 0.0620208 0 0.0377279 0.0627279 0 
0.038435 0.063435 0 0.0391421 0.0641421 0 0.0398492 0.0648492 0 
0.0405563 0.0655563 0 0.0412635 0.0662635 0 0.0419706 0.0669706 0 
0.0426777 0.0676777 0 0.0433848 0.0683848 0 0.0440919 0.0690919 0 
0.044799 0.069799 0 0.0455061 0.0705061 0 0.0462132 0.0712132 0 
0.0469203 0.0719203 0 0.0476274 0.0726274 0 0.0483345 0.0733345 0 
0.0490416 0.0740416 0 0.0497487 0.0747487 0 0.0505547 0.0758321 0 
0.0511094 0.0766641 0 0.0516641 0.0774961 0 0.0522188 0.0783282 0 
0.0527735 0.0791603 0 0.0533282 0.0799923 0 0.0538829 0.0808244 0 
0.0544376 0.0816564 0 0.0549923 0.0824885 0 0.055547 0.0833205 0 
0.0561017 0.0841525 0 0.0566564 0.0849846 0 0.0572111 0.0858167 0 
0.0577658 0.0866487 0 0.0583205 0.0874808 0 0.0588752 0.0883128 0 
0.0594299 0.0891449 0 0.0599846 0.0899769 0 0.0509806 0.0748039 0 
0.0519612 0.0746078 0 0.0529417 0.0744117 0 0.0539223 0.0742155 0 
0.0549029 0.0740194 0 0.0558835 0.0738233 0 0.0568641 0.0736272 0 
0.0578446 0.0734311 0 0.0588252 0.073235 0 0.0598058 0.0730388 0 
0.0607864 0.0728427 0 0.061767 0.0726466 0 0.0627475 0.0724505 0 
0.0637281 0.0722544 0 0.0647087 0.0720583 0 0.0656893 0.0718621 0 
0.0666699 0.071666 0 0.0676505 0.0714699 0 0.068631 0.0712738 0 
0.0696116 0.0710777 0 0.0705922 0.0708816 0 0.0715728 0.0706854 0 
0.0725534 0.0704893 0 0.0735339 0.0702932 0 0.0745145 0.0700971 0 
0.0257071 0.0492929 0 0.0264142 0.0485858 0 0.0271213 0.0478787 0 
0.0278284 0.0471716 0 0.0285355 0.0464645 0 0.0292426 0.0457574 0 
0.0299497 0.0450503 0 0.0306569 0.0443431 0 0.031364 0.043636 0 
0.0320711 0.0429289 0 0.0327782 0.0422218 0 0.0334853 0.0415147 0 
0.0341924 0.0408076 0 0.0348995 0.0401005 0 0.0356066 0.0393934 0 
0.0363137 0.0386863 0 0.0370208 0.0379792 0 0.0377279 0.0372721 0 
0.038435 0.036565 0 0.0391421 0.0358579 0 0.0398492 0.0351508 0 
0.0405563 0.0344437 0 0.0412635 0.0337365 0 0.0419706 0.0330294 0 
0.0426777 0.0323223 0 0.0433848 0.0316152 0 0.0440919 0.0309081 0 
0.044799 0.030201 0 0.0455061 0.0294939 0 0.0462132 0.0287868 0 
0.0469203 0.0280797 0 0.0476274 0.0273726 0 0.0483345 0.0266655 0 
0.0490416 0.0259584 0 0.0497487 0.0252513 0 0.0509806 0.0248039 0 
0.0519612 0.0246078 0 0.0529417 0.0244117 0 0.0539223 0.0242155 0 
0.0549029 0.0240194 0 0.0558835 0.0238233 0 0.0568641 0.0236272 0 
0.0578446 0.0234311 0 0.0588252 0.023235 0 0.0598058 0.0230388 0 
0.0607864 0.0228427 0 0.061767 0.0226466 0 0.0627475 0.0224505 0 
0.0637281 0.0222544 0 0.0647087 0.0220583 0 0.0656893 0.0218621 0 
0.0666699 0.021666 0 0.0676505 0.0214699 0 0.068631 0.0212738 0 
0.0696116 0.0210777 0 0.0705922 0.0208816 0 0.0715728 0.0206854 0 
0.0725534 0.0204893 0 0.0735339 0.0202932 0 0.0745145 0.0200971 0 
0.05 0.024 0 0.05 0.023 0 0.05 0.022 0 
0.05 0.021 0 0.05 0.02 0 0.05 0.019 0 
0.05 0.018 0 0.05 0.017 0 0.05 0.016 0 
0.05 0.015 0 0.05 0.014 0 0.05 0.013 0 
0.05 0.012 0 0.05 0.011 0 0.05 0.01 0 

METADATA
INFORMATION 2
NAME L2_NORM_RANGE LOCATION vtkDataArray
DATA 2 0.05 0.108139 
NAME L2_NORM_FINITE_RANGE LOCATION vtkDataArray
DATA 2 0.05 0.108139 

LINES 406 1218
2 0 1 
2 1 0 
2 1 2 
2 2 1 
2 2 3 
2 3 2 
2 3 4 
2 4 3 
2 4 5 
2 5 4 
2 5 6 
2 6 5 
2 6 7 
2 7 6 
2 7 8 
2 8 7 
2 8 9 
2 9 8 
2 9 10 
2 10 9 
2 10 11 
2 11 10 
2 11 12 
2 12 11 
2 12 13 
2 13 12 
2 13 14 
2 14 13 
2 14 15 
2 15 14 
2 15 16 
2 16 15 
2 16 17 
2 17 16 
2 17 18 
2 18 17 
2 18 19 
2 19 18 
2 19 20 
2 20 19 
2 20 21 
2 21 20 
2 21 22 
2 22 21 
2 22 23 
2 23 22 
2 23 24 
2 24 23 
2 24 25 
2 25 24 
2 25 26 
2 26 25 
2 26 27 
2 27 26 
2 27 28 
2 28 27 
2 28 29 
2 29 28 
2 29 30 
2 30 29 
2 30 31 
2 31 30 
2 31 32 
2 32 31 
2 32 33 
2 33 32 
2 33 34 
2 34 33 
2 34 35 
2 35 34 
2 35 36 
2 36 35 
2 36 37 
2 37 36 
2 37 38 
2 38 37 
2 38 39 
2 39 38 
2 39 40 
2 40 39 
2 40 41 
2 41 40 
2 41 42 
2 42 41 
2 42 43 
2 43 42 
2 43 44 
2 44 43 
2 44 45 
2 45 44 
2 45 46 
2 46 45 
2 46 47 
2 47 46 
2 47 48 
2 48 47 
2 48 49 
2 49 48 
2 49 50 
2 50 49 
2 50 51 
2 50 129 
2 51 50 
2 51 52 
2 52 51 
2 52 53 
2 53 52 
2 53 54 
2 54 53 
2 54 55 
2 55 54 
2 55 56 
2 56 55 
2 56 57 
2 57 56 
2 57 58 
2 58 57 
2 58 59 
2 59 58 
2 59 60 
2 60 59 
2 60 61 
2 61 60 
2 61 62 
2 62 61 
2 62 63 
2 63 62 
2 63 64 
2 64 63 
2 64 65 
2 65 64 
2 65 66 
2 66 65 
2 66 67 
2 67 66 
2 67 68 
2 68 67 
2 68 69 
2 69 68 
2 69 70 
2 70 69 
2 70 71 
2 71 70 
2 71 72 
2 72 71 
2 72 73 
2 73 72 
2 73 74 
2 74 73 
2 74 75 
2 75 74 
2 75 76 
2 76 75 
2 76 77 
2 77 76 
2 77 78 
2 78 77 
2 78 79 
2 79 78 
2 79 80 
2 80 79 
2 80 81 
2 81 80 
2 81 82 
2 82 81 
2 82 83 
2 83 82 
2 83 84 
2 84 83 
2 84 85 
2 85 84 
2 85 86 
2 85 104 
2 86 85 
2 86 87 
2 87 86 
2 87 88 
2 88 87 
2 88 89 
2 89 88 
2 89 90 
2 90 89 
2 90 91 
2 91 90 
2 91 92 
2 92 91 
2 92 93 
2 93 92 
2 93 94 
2 94 93 
2 94 95 
2 95 94 
2 95 96 
2 96 95 
2 96 97 
2 97 96 
2 97 98 
2 98 97 
2 98 99 
2 99 98 
2 99 100 
2 100 99 
2 100 101 
2 101 100 
2 101 102 
2 102 101 
2 102 103 
2 103 102 
2 104 85 
2 104 105 
2 105 104 
2 105 106 
2 106 105 
2 106 107 
2 107 106 
2 107 108 
2 108 107 
2 108 109 
2 109 108 
2 109 110 
2 110 109 
2 110 111 
2 111 110 
2 111 112 
2 112 111 
2 112 113 
2 113 112 
2 113 114 
2 114 113 
2 114 115 
2 115 114 
2 115 116 
2 116 115 
2 116 117 
2 117 116 
2 117 118 
2 118 117 
2 118 119 
2 119 118 
2 119 120 
2 120 119 
2 120 121 
2 121 120 
2 121 122 
2 122 121 
2 122 123 
2 123 122 
2 123 124 
2 124 123 
2 124 125 
2 125 124 
2 125 126 
2 126 125 
2 126 127 
2 127 126 
2 127 128 
2 128 127 
2 129 50 
2 129 130 
2 130 129 
2 130 131 
2 131 130 
2 131 132 
2 132 131 
2 132 133 
2 133 132 
2 133 134 
2 134 133 
2 134 135 
2 135 134 
2 135 136 
2 136 135 
2 136 137 
2 137 136 
2 137 138 
2 138 137 
2 138 139 
2 139 138 
2 139 140 
2 140 139 
2 140 141 
2 141 140 
2 141 142 
2 142 141 
2 142 143 
2 143 142 
2 143 144 
2 144 143 
2 144 145 
2 145 144 
2 145 146 
2 146 145 
2 146 147 
2 147 146 
2 147 148 
2 148 147 
2 148 149 
2 149 148 
2 149 150 
2 150 149 
2 150 151 
2 151 150 
2 151 152 
2 152 151 
2 152 153 
2 153 152 
2 153 154 
2 154 153 
2 154 155 
2 155 154 
2 155 156 
2 156 155 
2 156 157 
2 157 156 
2 157 158 
2 158 157 
2 158 159 
2 159 158 
2 159 160 
2 160 159 
2 160 161 
2 161 160 
2 161 162 
2 162 161 
2 162 163 
2 163 162 
2 163 164 
2 163 189 
2 164 163 
2 164 165 
2 165 164 
2 165 166 
2 166 165 
2 166 167 
2 167 166 
2 167 168 
2 168 167 
2 168 169 
2 169 168 
2 169 170 
2 170 169 
2 170 171 
2 171 170 
2 171 172 
2 172 171 
2 172 173 
2 173 172 
2 173 174 
2 174 173 
2 174 175 
2 175 174 
2 175 176 
2 176 175 
2 176 177 
2 177 176 
2 177 178 
2 178 177 
2 178 179 
2 179 178 
2 179 180 
2 180 179 
2 180 181 
2 181 180 
2 181 182 
2 182 181 
2 182 183 
2 183 182 
2 183 184 
2 184 183 
2 184 185 
2 185 184 
2 185 186 
2 186 185 
2 186 187 
2 187 186 
2 187 188 
2 188 187 
2 189 163 
2 189 190 
2 190 189 
2 190 191 
2 191 190 
2 191 192 
2 192 191 
2 192 193 
2 193 192 
2 193 194 
2 194 193 
2 194 195 
2 195 194 
2 195 196 
2 196 195 
2 196 197 
2 197 196 
2 197 198 
2 198 197 
2 198 199 
2 199 198 
2 199 200 
2 200 199 
2 200 201 
2 201 200 
2 201 202 
2 202 201 
2 202 203 
2 203 202 

POINT_DATA 204
FIELD FieldData 1
Scalars_ 1 204 float
2 2 2 2 2 2 2 2 2 
2 2 2 2 2 2 2 2 2 
2 2 2 2 2 2 2 2 4 
4 4 4 4 4 4 4 4 4 
4 4 4 4 4 4 4 4 4 
4 4 4 4 4 4 4 4 4 
4 6 6 6 6 6 6 6 6 
6 6 6 6 6 6 6 6 6 
6 6 6 6 6 6 6 6 6 
6 6 6 6 8 8 8 8 8 
8 8 8 8 8 8 8 8 8 
8 8 8 8 8 8 8 8 8 
8 8 8 8 8 8 8 8 8 
8 8 8 8 8 8 8 8 8 
8 8 8 4 4 4 4 6 6 
6 6 6 6 6 6 6 6 6 
6 6 6 6 6 6 6 6 6 
6 6 6 6 6 6 6 6 6 
6 8 8 8 8 8 8 8 8 
8 8 8 8 8 8 8 8 8 
8 8 8 8 8 8 8 8 8 
8 8 8 8 8 8 8 8 8 
8 8 8 8 8 8 
METADATA
INFORMATION 0

