# vtk DataFile Version 3.0
Tree
ASCII
DATASET POLYDATA
POINTS 800 float
-0.004 0.02 0.0265
0.0065 0.01 0.026302
0.00503 0.0112753 0.0243485
0.00725 0.009063 0.02275
0.00681202 0.0091965 0.0232166
0.008403 0.00575 0.023
0.00293042 0.0139369 0.023604
0.004546 0.01325 0.0215
0.00820372 0.00657716 0.022352
0.009055 0.00575 0.0205
0.00861637 0.00578685 0.0216195
0.009023 0.003 0.02175
0.00744737 0.00825222 0.0221837
0.007871 0.009 0.018
0.000823948 0.0157724 0.0239513
0.00125 0.015355 0.0205
0.00418035 0.0132255 0.0214731
0.00505 0.01175 0.01725
0.0090424 0.00375179 0.0210082
0.009557 0.0025 0.01925
0.00752545 0.00906441 0.0183741
0.007 0.009871 0.01575
0.000526147 0.0156358 0.0209083
-0.00097 0.016 0.019
0.00384771 0.0126421 0.0182385
0.00175 0.01325 0.015954
0.00902882 0.00322554 0.0215275
0.007555 -0.0025 0.0255
0.00955754 0.00245043 0.0192534
0.01 0.00125 0.017755
0.00940791 0.00340196 0.0194475
0.010071 0.00525 0.01525
0.00329105 0.0125169 0.0162507
0.004257 0.0115 0.01375
-0.0019607 0.0177972 0.0246254
-0.00425 0.01725 0.020938
-0.00064024 0.0157019 0.0191302
-0.0015 0.014573 0.01625
0.00744473 0.00932675 0.0163534
0.008863 0.008 0.0135
-0.00414742 0.0173705 0.0226953
-0.0065 0.017055 0.023
0.00842117 -0.000349785 0.022301
0.008543 -0.003 0.01975
0.0100828 0.00345407 0.0164673
0.010557 0.00225 0.01525
0.0031163 0.0121167 0.0144703
0.001563 0.01225 0.01275
0.00767677 -0.00265193 0.0240728
0.007 -0.0055 0.024059
-0.0045641 0.017195 0.0214217
-0.00675 0.016556 0.02
-0.00535519 0.0167691 0.0203012
-0.00475 0.01575 0.016972
-0.00150366 0.0145631 0.0161713
-0.00225 0.01357 0.0135
0.00821097 0.00861242 0.0135548
0.00775 0.00905 0.01125
-0.0063198 0.0168243 0.0230577
-0.00975 0.014799 0.024
-0.00887635 0.0148514 0.0231439
-0.00957 0.01325 0.02175
0.00851481 -0.00275644 0.0196498
0.00856 -0.00425 0.01775
0.00985116 0.00125015 0.0178937
0.010043 -0.00175 0.015
0.0104616 0.00281142 0.015256
0.011061 0.00325 0.01225
0.00838976 0.00843483 0.0125048
0.010377 0.0065 0.0105
0.00762391 0.00910769 0.0114862
0.00525 0.011 0.0098
-0.00949242 0.0133905 0.0224014
-0.01075 0.01025 0.022918
0.00838494 -0.00366378 0.0192909
0.0075 -0.006357 0.02075
-0.00657682 0.0163248 0.0199304
-0.009 0.014372 0.01875
-0.00780458 0.0150479 0.0183577
-0.0075 0.014554 0.016
0.0108042 0.00223457 0.0135941
0.011 0.00025 0.012756
0.00162242 0.0122942 0.0126705
0 0.01256 0.0105
0.00161876 0.0122882 0.0111918
0.003 0.012045 0.00925
0.00744778 -0.00624067 0.0208898
0.006555 -0.00825 0.0225
-0.0105155 0.0106429 0.0225184
-0.0115 0.007 0.02106
-0.0101902 0.0116634 0.0220199
-0.01075 0.011063 0.01925
0.00848717 -0.00436551 0.0178763
0.00855 -0.0055 0.016
-0.00292117 0.014025 0.0143548
-0.0055 0.01406 0.0135
-0.00370216 0.0138906 0.0132103
-0.0035 0.013515 0.011
0.00951764 0.00760915 0.0106516
0.009579 0.00825 0.00875
0.00696957 0.0100331 0.00992792
0.008 0.01025 0.007848
-0.0114037 0.0071743 0.0216119
-0.012 0.0045 0.021781
-0.011187 0.00826143 0.021491
-0.011569 0.00825 0.019
-0.00862597 0.0144526 0.0183013
-0.01 0.012872 0.01675
-0.00775724 0.01448 0.0163566
-0.00875 0.013073 0.014
0.0108186 0.000435834 0.0127714
0.010082 -0.00225 0.01125
0.0108728 0.00135421 0.0126322
0.01125 0.001471 0.00925
0.0018175 0.0124097 0.00961485
0.00075 0.013 0.007779
0.00690127 0.0105832 0.00844253
0.005548 0.01175 0.007
-0.0119269 0.00445695 0.0216617
-0.01225 0.002054 0.0215
0.00708174 -0.00723949 0.021095
0.006555 -0.0095 0.01925
0.00823087 -0.00569776 0.0170305
0.0075 -0.007827 0.017
-0.00986019 0.0129236 0.0167564
-0.011071 0.01125 0.015
0.00847577 -0.00556082 0.0159881
0.009 -0.005327 0.01275
-0.00497193 0.013849 0.0130254
-0.00725 0.013073 0.011
0.000157065 0.0125562 0.0104068
-0.002 0.013057 0.0085
0.0101297 0.00669693 0.0101389
0.01125 0.0045 0.007455
0.0106118 0.00614877 0.00819115
0.010571 0.00725 0.00625
0.00656926 -0.00830548 0.0222808
0.005039 -0.01175 0.02525
-0.0122621 0.00247559 0.0210488
-0.01257 0.0015 0.01975
-0.011859 0.00542189 0.0211316
-0.01275 0.004556 0.018
-0.0117774 0.00804366 0.0190632
-0.01275 0.0075 0.016379
0.00832837 -0.00615155 0.0146543
0.0075 -0.007871 0.014
-0.00879174 0.0131304 0.0139356
-0.00975 0.012072 0.01175
-0.00603102 0.0134568 0.0111581
-0.0055 0.013557 0.00925
0.0111043 0.00152109 0.00936172
0.011053 0.00175 0.00675
0.00152403 0.0127261 0.00828436
0.003 0.012857 0.00575
0.0103796 0.00745761 0.00652117
0.009841 0.00925 0.005
0.00549622 -0.0109611 0.0231289
0.005071 -0.01225 0.02225
0.00640142 -0.00951748 0.0196228
0.005555 -0.0115 0.019
0.00615588 -0.0101421 0.0186689
0.00625 -0.010049 0.01675
-0.0124575 0.00812048 0.0165671
-0.012539 0.00925 0.01475
-0.0100034 0.0119845 0.0126594
-0.01175 0.01055 0.0125
0.0100258 -0.00224912 0.0112651
0.00925 -0.004549 0.01
0.0103121 -0.00141931 0.0112497
0.010542 -0.0015 0.00825
-0.0019723 0.0130768 0.00839763
-0.00375 0.013557 0.0065
0.00156961 0.0129917 0.00662374
0 0.013525 0.00525
0.00658145 0.0110999 0.00738569
0.008 0.011357 0.0045
0.00691606 0.0116105 0.00528342
0.00575 0.012556 0.004
-0.0125535 0.0016206 0.0208898
-0.01375 -0.00175 0.022418
-0.0130357 7.78867e-05 0.0208361
-0.01325 -0.001 0.019388
-0.0127044 0.00143721 0.0197989
-0.013571 0.00075 0.01725
-0.0128162 0.00439813 0.0180692
-0.01375 0.00325 0.015563
0.0074935 -0.00773981 0.0141767
0.005856 -0.01025 0.014
0.00772907 -0.00727741 0.0139659
0.007566 -0.0075 0.01175
0.0078097 -0.00714877 0.0118725
0.00825 -0.0065 0.009655
-0.00619082 0.0134338 0.0100832
-0.0085 0.013042 0.00825
0.0108446 0.00103303 0.00737575
0.01025 -0.000549 0.006
0.0108944 0.0016517 0.00670407
0.01056 0.00325 0.0045
0.0102511 0.00773749 0.00571395
0.0105 0.006 0.003689
0.00253436 0.0129942 0.00570987
0.00325 0.0135 0.003279
0.00499295 -0.0118589 0.0245076
0.003567 -0.0145 0.02525
0.00507087 -0.0121539 0.0222773
0.00425 -0.014049 0.02075
0.00556954 -0.0113434 0.018758
0.0045 -0.013 0.01791
0.00604959 -0.0103257 0.0170931
0.005 -0.011846 0.0155
-0.0127524 0.00765608 0.0162014
-0.014 0.006 0.014318
-0.0133792 0.00722243 0.0146323
-0.013565 0.008 0.01275
0.00753457 -0.00749545 0.0123156
0.006 -0.009377 0.011
-0.0106495 0.0114944 0.0121803
-0.01125 0.01125 0.009545
0.0093662 -0.00407095 0.00960364
0.009 -0.004813 0.0075
-0.00694633 0.0133429 0.00835326
-0.00625 0.013557 0.006
-0.000127725 0.0133633 0.0054096
-0.00225 0.013557 0.00425
0.002391 0.0133541 0.00397876
0.001 0.013557 0.003
0.0101563 0.007046 0.00393406
0.009557 0.00775 0.00225
0.00957909 0.00787492 0.0026347
0.008559 0.01 0.00175
-0.0135921 -0.00174647 0.0219457
-0.014 -0.00525 0.022095
-0.0137342 -0.00314831 0.0213144
-0.01375 -0.00375 0.019563
-0.0133321 -0.000918971 0.0194979
-0.01425 -0.0025 0.01738
-0.0136368 0.00070493 0.0173017
-0.014549 0 0.01525
-0.0137888 0.00331555 0.0155869
-0.014689 0.0025 0.0135
0.0058822 -0.00992755 0.0134824
0.004546 -0.01125 0.012
-0.0114998 0.0108233 0.0108665
-0.013 0.009377 0.0105
0.00670106 -0.00845935 0.0108481
0.00675 -0.00825 0.008954
-0.0112124 0.0112475 0.00958051
-0.0105 0.012055 0.00725
-0.00722853 0.0133252 0.0068713
-0.00875 0.013035 0.00575
0.0102355 -0.000499992 0.00619183
0.009 -0.00325 0.004717
-0.00641749 0.0134759 0.00595496
-0.005 0.013557 0.0035
0.00974902 -0.000949996 0.00487416
0.009557 0.00025 0.00275
-0.00129087 0.0135491 0.00399919
-0.00125 0.01375 0.002029
0.00643313 0.0121066 0.00420187
0.007048 0.01225 0.0015
0.0063478 0.0124841 0.0022372
0.00525 0.01325 0.001045
0.00375047 -0.0143777 0.0245818
0.003 -0.016327 0.0235
0.00410821 -0.0140704 0.0209066
0.00304 -0.01575 0.02
0.00337063 -0.0149664 0.0196601
0.003 -0.014871 0.01775
0.00484587 -0.0118414 0.0160798
0.00325 -0.013567 0.01575
0.00402835 -0.0125858 0.0153219
0.00375 -0.012528 0.01375
-0.014418 0.00332098 0.0138539
-0.01475 0.0045 0.012379
-0.0136537 0.00758006 0.0130132
-0.014557 0.0065 0.011
0.00616146 -0.00912157 0.0106897
0.005 -0.010371 0.00925
-0.0123999 0.0100938 0.00994661
-0.013 0.009871 0.008
0.00684179 -0.00810996 0.00912185
0.0075 -0.006846 0.0065
0.00891124 -0.003258 0.00483396
0.008041 -0.00525 0.005
0.00927121 -0.00199124 0.00433653
0.009 -0.002031 0.003
0.00962265 0.000496001 0.00314973
0.009572 0.0025 0.00175
0.00987009 0.00704968 0.00306852
0.009555 0.005 0.001
0.00288063 0.0135133 0.00319084
0.00325 0.014043 0.0005
0.00908504 0.00841996 0.00168465
0.008689 0.008 0
0.00864002 0.00939058 0.0014069
0.007522 0.0105 -0.0005
-0.01394 -0.00510254 0.0219059
-0.014084 -0.00825 0.02225
-0.0140614 -0.00624922 0.0214235
-0.01425 -0.0065 0.019888
-0.0138621 -0.00386754 0.019782
-0.014581 -0.00575 0.01775
-0.0144828 -0.00472761 0.0179103
-0.015052 -0.00425 0.016
0.00324242 -0.0133632 0.0154252
0.00125 -0.014564 0.0145
-0.0144534 1.55777e-05 0.0152942
-0.01525 -0.00075 0.013063
0.00361515 -0.0126143 0.0138944
0.00225 -0.013033 0.01175
-0.0147122 0.00374802 0.0127892
-0.0155 0.00275 0.010779
-0.012869 0.00965957 0.00913277
-0.01425 0.007549 0.009
0.00669406 -0.0080701 0.00796849
0.00575 -0.009051 0.00725
-0.011148 0.0115076 0.00764576
-0.012 0.011023 0.006
0.0070321 -0.00724723 0.00640992
0.00675 -0.00688 0.0045
-0.00645039 0.0135099 0.00460838
-0.00775 0.013528 0.00325
-0.00574413 0.0135419 0.00336468
-0.006 0.013557 0.00175
-0.00154104 0.0136708 0.00238189
-0.00325 0.013572 0.00075
0.0024318 0.0138771 0.00122107
0.00075 0.014056 -0
0.00947522 0.00507192 0.00106496
0.009 0.0035 -0.000541
0.00587605 0.0127807 0.00127135
0.00635 0.01225 -0.001
0.00305266 -0.0158637 0.0241586
0.0015 -0.017891 0.0255
0.00225172 -0.0169484 0.0238761
0.001523 -0.018 0.022
0.00296657 -0.0156322 0.0198188
0.0015 -0.017315 0.01975
0.00201663 -0.0164137 0.0191926
0.00125 -0.0165 0.017661
0.00144818 -0.0146826 0.015072
0.00025 -0.016017 0.01575
-0.0149951 -0.00106502 0.014057
-0.01525 -0.00275 0.014063
0.00122693 -0.0146054 0.0145575
0.00025 -0.01436 0.0125
-0.015224 -0.000800054 0.0130426
-0.015556 -0.0005 0.011
0.00506859 -0.0102687 0.00970871
0.00325 -0.01205 0.00975
-0.0151239 0.00362937 0.0109241
-0.015057 0.00475 0.009
0.00443624 -0.010831 0.00910018
0.004369 -0.01075 0.0075
-0.0136976 0.00853211 0.00835311
[...]
CELL_DATA 799
SCALARS radius float
LOOKUP_TABLE default
0.114259
0.948176
0.0807088
0.947622
0.0926834
0.988099
0.0697044
0.871662
0.095983
0.871312
0.0697903
0.947427
0.0788584
1.02647
0.0860769
0.482422
0.107038
0.870924
0.0477914
0.573013
0.0930036
0.488815
0.0748718
0.481937
0.108497
0.79999
0.125375
0.173718
0.0784384
0.529698
0.117726
0.48017
0.106606
1.15049
0.0770347
0.487923
0.0498389
0.572514
0.0948035
0.761338
0.0649584
0.799813
0.0696726
0.523395
0.0855708
0.478317
0.0571122
0.174628
0.149696
0.401307
0.0676535
0.400359
0.123323
0.487335
0.100446
0.571695
0.0730321
0.722193
0.0941719
0.722018
0.0818762
0.797028
0.0652958
0.172504
0.166919
0.521402
0.114854
0.570825
0.0853862
0.375999
0.124
0.721484
0.0814377
0.796851
0.0660194
0.39642
0.0890165
0.395762
0.0801512
0.520632
0.0757509
0.476545
0.0737397
0.476271
0.110628
0.701397
0.0710563
0.720041
0.0828434
0.721132
0.119349
0.543921
0.057183
0.487161
0.0924447
0.485733
0.120088
0.510244
0.120331
0.375078
0.115157
0.709075
0.0598759
0.719693
0.0755708
0.179171
0.0801449
0.383122
0.0575817
0.244749
0.0621613
0.518763
0.0704497
0.464514
0.105073
0.370505
0.117968
0.668665
0.087328
0.701202
0.0827048
0.543607
0.124008
0.171525
0.165482
0.541447
0.126899
0.483274
0.109337
0.198362
0.0850961
0.508003
0.123934
0.507198
0.0858796
0.506334
0.102247
0.668505
0.063342
0.708698
0.0664123
0.253324
0.0825301
0.541235
0.0758013
0.381949
0.106641
0.482144
0.106526
0.499927
0.0814252
0.462413
0.093823
0.504719
0.125988
0.505868
0.0638496
0.599035
0.0910364
0.598509
0.0891381
0.251062
0.137775
0.381512
0.121854
0.218384
0.141366
0.242306
0.156204
0.194905
0.189341
0.460597
0.0820415
0.366759
0.126324
0.362645
0.116088
0.668007
0.0869097
0.57191
0.0762889
0.480629
0.0581826
0.3848
0.0568508
0.196621
0.123685
0.538899
0.0964586
0.159104
0.14628
0.480263
0.1205
0.499461
0.0759232
0.165145
0.158264
0.503889
0.116863
0.375555
0.0944769
0.477091
0.105295
0.275272
0.0866857
0.160729
0.150337
0.594619
0.0964508
0.236391
0.143467
0.232989
0.131299
0.530029
0.0929071
0.378714
0.0594634
0.216692
0.194427
0.478509
0.0751464
0.355021
0.120549
0.373593
0.134181
0.50125
0.093882
0.427953
0.124144
0.567542
0.0762717
0.566862
0.0812801
0.162018
0.156171
0.480262
0.062045
0.384139
0.10934
0.192792
0.174062
0.374462
0.12286
0.525207
0.0811992
0.2442
0.139677
0.475948
0.0716609
0.493368
0.0788322
0.370833
0.114568
0.492768
0.11947
0.353555
0.105078
0.357462
0.130388
0.353333
0.127592
0.475521
0.112427
0.274122
0.105081
0.271202
0.167066
0.593951
0.0889554
0.593102
0.0842137
0.383723
0.109984
0.213228
0.195143
0.390394
0.0995649
0.336035
0.129212
0.440329
0.128303
0.299348
0.139194
0.482189
0.0834938
0.19611
0.180051
0.499123
0.0742662
0.367731
0.131088
0.426441
0.0853694
0.189664
0.169958
0.545237
0.0799973
0.544739
0.123118
0.271719
0.0740993
0.269273
0.148615
0.583913
0.0619026
0.479977
0.056865
0.212147
0.0941738
0.380741
0.118994
0.330469
0.141035
0.439407
0.0878589
0.243019
0.121126
0.192306
0.170994
0.369801
0.137813
0.363308
0.0987105
0.34882
0.140888
0.365641
0.137526
0.358219
0.109325
0.347312
0.149302
0.473794
0.104394
0.471674
0.123149
0.248168
0.182476
0.241722
0.200397
0.583224
0.083198
0.479631
0.0864892
0.371086
0.131894
0.392857
0.0825806
0.388632
0.120447
0.377657
0.103877
0.386442
0.138813
0.323749
0.0897176
0.426769
0.0703235
0.384443
0.117906
0.297515
0.0923514
0.440178
0.109788
0.439175
0.0819589
0.314434
0.153545
0.345612
0.138264
0.341475
0.150256
0.357152
0.151134
0.41355
0.0668032
0.542634
0.0921604
0.542054
0.070612
0.501393
0.120967
0.253248
0.150534
0.251116
0.138085
0.370511
0.111761
0.367677
0.104375
0.39246
0.115779
0.207628
0.200958
0.177538
0.171371
0.380377
0.0840688
0.373677
0.0941255
0.425524
0.112403
0.226548
0.214362
0.409176
0.11657
0.383611
0.127342
0.286991
0.14039
0.35947
0.111424
0.356971
0.135723
0.312567
0.0939975
0.359936
0.129847
0.347892
0.135381
0.412333
0.114273
0.393003
0.161411
0.37479
0.123797
0.373945
0.141907
0.369439
0.109096
0.199587
0.18807
0.528102
0.119784
0.527413
0.120504
0.488487
0.12535
0.366075
0.124362
0.364854
0.102718
0.361325
0.128329
0.379955
0.0807466
0.370982
0.151869
0.376307
0.155173
0.190733
0.182763
0.314569
0.13875
0.408482
0.114452
0.379862
0.0946153
0.254106
0.147394
0.283767
0.195604
0.377083
0.119418
0.337625
0.147156
0.299693
0.187894
0.353115
0.163962
0.331683
0.176975
0.321068
0.167233
0.392358
0.134276
0.372071
0.139876
0.321467
0.101492
0.362323
0.106285
0.304993
0.118068
0.525345
0.131525
0.460536
0.117807
0.457737
0.133106
0.486031
0.0895664
0.231608
0.213932
0.483235
0.112143
0.187706
0.16739
0.363224
0.121327
0.212133
0.195156
0.367298
0.103744
0.376337
0.0995994
0.310166
0.171872
0.362297
0.115775
0.204431
0.192411
0.312118
0.182942
0.315445
0.123745
0.372654
0.162829
0.375031
0.0962457
0.248611
0.232691
0.206536
0.195106
0.373955
0.122097
0.332253
0.11333
0.272719
0.176247
0.329712
0.164599
0.344256
0.160863
0.347163
0.156082
0.211081
0.199268
0.383033
0.115598
0.367445
0.117461
0.340893
0.150544
0.260432
0.124167
0.303726
0.125998
0.30519
0.10906
0.428546
0.112152
0.455121
0.0968804
0.427238
0.090687
0.451294
0.0966354
0.264004
0.163168
0.354279
0.161034
0.324406
0.142618
0.335094
0.076624
0.345681
0.110312
0.286276
0.124197
0.257625
0.147702
0.365824
0.110558
0.297411
0.150727
0.343742
0.119296
0.36902
0.103955
0.302696
0.162812
0.312582
0.137737
0.24565
0.226509
0.277454
0.157719
0.303023
0.110763
0.324525
0.13319
0.369851
0.1372
0.319636
0.173637
0.33713
0.150987
0.334516
0.139658
0.377451
0.103148
0.302039
0.215408
0.28388
0.234422
0.360561
0.134412
0.318922
0.142675
0.279994
0.15039
0.315458
0.169244
0.254393
0.244123
0.297659
0.128938
0.29682
0.151958
0.289934
0.167176
0.39058
0.11718
0.387473
0.0939633
0.362022
0.158922
0.242353
0.23755
0.359694
0.130326
0.349041
0.133707
0.260388
0.236991
0.351866
0.113341
0.319876
0.125649
0.340243
0.132466
0.340626
0.17464
0.331845
0.181301
0.330478
0.184833
0.336724
0.168649
0.284119
0.16038
0.275977
0.177392
0.251891
0.233677
0.29147
0.126748
0.317012
0.140804
0.287541
0.204678
0.270519
0.199477
0.291444
0.191255
0.242775
0.232766
0.358135
0.146231
0.305979
0.147921
0.296773
0.212339
0.273539
0.173104
0.296266
0.150493
0.288487
0.21801
0.216648
0.205774
0.268945
0.24089
0.242732
0.226224
0.324451
0.140105
0.322783
0.193327
0.342336
0.110778
0.239021
0.232438
0.337885
0.196706
0.356356
0.163746
0.264663
0.247372
0.298304
0.169228
0.235422
0.201666
0.291829
0.225518
0.277393
0.214542
0.270079
0.190447
0.352871
0.167271
0.34851
0.13848
0.335161
0.229485
0.259905
0.220008
0.327088
0.28401
0.342876
0.180313
0.325376
0.191552
0.317669
0.144928
0.280768
0.180806
0.310132
0.235185
0.292514
0.280139
0.274471
0.245335
0.303099
0.245723
0.258409
0.246242
0.320275
0.179841
0.311185
0.198841
0.303861
0.160623
0.287725
0.251762
0.281216
0.262535
0.248994
0.22448
0.312465
0.228542
0.247708
0.236112
0.264812
0.250816
0.277334
0.242922
0.265302
0.220604
0.278546
0.258612
0.235508
0.218622
0.284432
0.23774
0.249783
0.231133
0.291013
0.276926
0.254808
0.224777
0.283424
0.198694
0.278695
0.224302
0.246198
0.231087
0.304369
0.207657
0.284229
0.241055
0.251329
0.231666
0.268372
0.229599
0.314016
0.144007
0.263422
0.249486
0.309351
0.298578
0.349865
0.203664
0.337475
0.225259
0.238091
0.219616
0.310679
0.26475
