# vtk DataFile Version 3.0
Tree
ASCII
DATASET POLYDATA
POINTS 800 float
-0.004 0.02 0.0265
0.0065 0.01 0.026302
0.00461 0.0117065 0.0248517
0.00725 0.009063 0.02275
0.00669862 0.00931291 0.0233525
0.008403 0.00575 0.023
0.002251 0.0141968 0.0248625
0.004365 0.0135 0.02175
0.00790409 0.00703517 0.022511
0.009056 0.00525 0.02075
0.00808722 0.00597695 0.0227465
0.00825 0.001955 0.02325
0.00708459 0.00913797 0.0229307
0.00752 0.0095 0.0185
-0.00062446 0.0168663 0.0256158
0.00025 0.016072 0.02175
0.00379436 0.0135481 0.0220304
0.004366 0.0125 0.01775
0.00838187 0.00368813 0.0223383
0.009 0.00125 0.020857
0.00844665 0.00644325 0.021229
0.009558 0.00625 0.01675
-0.000615931 0.0166789 0.0240308
-0.00225 0.01706 0.02175
-1.8076e-05 0.0160723 0.0219533
0.0005 0.014557 0.0175
0.00895791 0.00666764 0.0180726
0.00805 0.00875 0.015
-0.0017738 0.0168801 0.0220508
-0.002 0.01651 0.0195
0.0039255 0.012853 0.0185907
0.002322 0.013 0.0155
0.00331617 0.0129089 0.0174162
0.00525 0.010582 0.01375
0.00867865 0.00157835 0.0213796
0.00825 -0.0025 0.020887
0.0089036 0.0013485 0.0210138
0.010057 0.001 0.01675
0.00936184 0.00644078 0.0168637
0.01 0.00633 0.0135
0.00833589 -0.000408775 0.0217885
0.007057 -0.00475 0.02525
-0.00210714 0.017006 0.0218402
-0.0055 0.01706 0.0205
-0.00214893 0.0164685 0.0197936
-0.0035 0.0155 0.016678
0.00227488 0.0130031 0.0159065
-0.0005 0.01325 0.013613
0.00949753 0.00668144 0.0147014
0.008371 0.0085 0.01175
-0.00448214 0.0170438 0.0209021
-0.008582 0.01475 0.02325
0.00840707 -0.00126618 0.0210847
0.00901 -0.0025 0.0185
0.00991331 0.00146152 0.0174844
0.010862 0.00225 0.0145
0.00375904 0.0121328 0.0156681
0.00275 0.011853 0.012
0.00498744 0.0109296 0.0138129
0.00625 0.010074 0.0105
-0.00768532 0.0148793 0.0225461
-0.010084 0.01125 0.02275
0.00822234 -0.00238946 0.0208828
0.00757 -0.0055 0.02025
-0.00519464 0.0170551 0.0206206
-0.007 0.015517 0.0175
0.00999924 0.000992298 0.0168472
0.01025 -0.001 0.014349
0.00985334 0.00617615 0.0139288
0.01107 0.00375 0.0115
0.00522509 0.0107434 0.012391
0.00425 0.01125 0.010046
0.00746163 -0.00352975 0.0237235
0.00675 -0.006887 0.023
-0.00672437 0.0155287 0.0220529
-0.009 0.014827 0.0205
0.00872758 -0.00241816 0.0192725
0.0085 -0.005 0.017556
-0.00362766 0.0155484 0.0171352
-0.0055 0.014566 0.01475
-0.000382039 0.0132567 0.0138953
-0.00325 0.013556 0.012
-0.000445738 0.0132531 0.0137428
0 0.01256 0.01025
0.00909047 0.00761302 0.0126341
0.01005 0.00775 0.009
-0.0099748 0.011421 0.0227487
-0.01175 0.00875 0.02292
-0.0107961 0.00997223 0.0224938
-0.011403 0.00775 0.0205
-0.00892164 0.0130119 0.0226555
-0.010689 0.0115 0.019
-0.00682755 0.0156571 0.0182376
-0.00925 0.013551 0.01675
0.0100222 -0.000729556 0.0152095
0.00925 -0.004049 0.01425
0.0101817 -0.000918867 0.0146071
0.011053 0.00025 0.01175
0.0105485 0.00500324 0.0122294
0.011082 0.00525 0.00925
0.00625327 0.0102444 0.0106994
0.00825 0.01 0.008277
0.00683401 -0.00611278 0.0235682
0.005571 -0.00975 0.02525
-0.011177 0.00842834 0.0216962
-0.012 0.0045 0.021781
0.00763427 -0.00527463 0.0201725
0.007054 -0.00825 0.01925
0.00736735 -0.0066433 0.0197482
0.007572 -0.00725 0.017
-0.00764576 0.0147957 0.0172777
-0.008 0.013566 0.01425
-0.00763101 0.013995 0.0149247
-0.00625 0.013556 0.0115
0.010906 0.00403997 0.0114636
0.0115 0.001972 0.009
0.00425 0.0113974 0.0103411
0.002857 0.0125 0.00775
0.00701203 0.0101515 0.00977886
0.00625 0.011545 0.007
0.00635407 -0.00749493 0.0242073
0.006 -0.010333 0.022
-0.0116153 0.00651297 0.0213834
-0.01225 0.004568 0.01925
-0.0113352 0.0079535 0.0208589
-0.012 0.009 0.017531
-0.00907193 0.0135649 0.0167525
-0.011072 0.01125 0.01575
-0.00801634 0.013611 0.0143301
-0.00925 0.01257 0.01275
0.0102186 -0.000962679 0.0144677
0.010029 -0.00325 0.01075
-0.000612326 0.0129853 0.0118214
-0.00275 0.013073 0.00875
-0.0002633 0.0128125 0.0105057
0 0.013057 0.00725
0.0100095 0.00742617 0.00939291
0.011002 0.00675 0.00625
0.00577353 -0.00920572 0.0247101
0.00506 -0.0115 0.024
-0.0119456 0.00460954 0.0216375
-0.012573 0.00025 0.02175
0.00700112 -0.00809619 0.0193145
0.006072 -0.01025 0.01875
-0.0117128 0.00803257 0.0194033
-0.01275 0.0065 0.01688
0.00762635 -0.00707742 0.0171794
0.008 -0.007327 0.0145
0.00930252 -0.00353306 0.013997
0.008555 -0.006 0.01225
-0.00690192 0.0136427 0.0120359
-0.007 0.013364 0.0095
0.011183 0.00304015 0.00977937
0.01106 0.00325 0.007
0.0103638 0.00737484 0.00774789
0.010059 0.00875 0.0055
0.00693208 0.010758 0.00813722
0.008346 0.011 0.005
0.00578768 -0.0102307 0.0223251
0.00525 -0.012049 0.02125
-0.0121338 0.00330168 0.0216713
-0.013 0.00175 0.01886
0.00762635 -0.00707742 0.0171794
0.006555 -0.0095 0.0165
-0.0120045 0.00860022 0.017797
-0.01275 0.008563 0.01475
-0.00913322 0.0126965 0.013303
-0.0115 0.010871 0.01275
-0.00921497 0.0126079 0.0129159
-0.00925 0.012529 0.01025
0.0101672 -0.00220444 0.0117012
0.010542 -0.0015 0.00825
-0.00279906 0.0132438 0.0090464
-0.00475 0.013557 0.00675
-0.000364256 0.0131182 0.00773182
-0.001 0.013555 0.00525
0.00645373 0.0114033 0.00705209
0.006 0.0125 0.004529
-0.000109277 0.0130754 0.00739455
0.0025 0.013074 0.00425
-0.012762 0.000666537 0.0219118
-0.01375 -0.00175 0.022418
-0.0126902 0.000508253 0.0218503
-0.01325 -0.00125 0.019546
0.006183 -0.00987847 0.0186574
0.005073 -0.01175 0.017
-0.0125035 0.0065814 0.017605
-0.013582 0.00325 0.01575
0.0071794 -0.00805346 0.0165509
0.0065 -0.009377 0.014
0.00689714 -0.0086221 0.0148169
0.00725 -0.00805 0.012
0.00868613 -0.00543893 0.0124067
0.00805 -0.00675 0.01
0.00997935 -0.00291423 0.010809
0.00925 -0.004063 0.00825
0.0104249 -0.00130542 0.00879439
0.010552 0 0.00625
0.0105091 7.22656e-05 0.0065742
0.010544 0.00175 0.0045
0.0106632 0.00673868 0.00650909
0.010542 0.00475 0.0035
0.0106171 0.00598298 0.00536564
0.010042 0.00725 0.003
0.00512634 -0.011056 0.0244235
0.00375 -0.014064 0.02525
-0.0133772 -0.00118421 0.0220423
-0.013557 -0.00375 0.021
-0.0130991 -0.000494611 0.0201011
-0.013572 -0.00025 0.01775
0.00668268 -0.00902974 0.0143758
0.0055 -0.010877 0.015
-0.012827 0.00558198 0.0170485
-0.014053 0.00575 0.014
-0.0127914 0.00838339 0.015095
-0.01375 0.007879 0.0125
-0.011036 0.0111791 0.0126193
-0.01275 0.009551 0.01075
-0.00951494 0.0124222 0.0112213
-0.01125 0.011524 0.009
-0.00932892 0.01253 0.0102827
-0.009 0.012864 0.0075
0.0105069 -0.00144163 0.00841332
0.0095 -0.003 0.00597
0.0105357 2.74609e-05 0.0063732
0.009581 -0.00075 0.00425
0.00113301 0.0131422 0.00542715
0.00075 0.013557 0.003
0.0100594 0.00718791 0.00353372
0.009057 0.00925 0.00225
0.00594751 0.0123089 0.00486233
0.00475 0.01325 0.002044
0.00430682 -0.0129534 0.0245796
0.0035 -0.01537 0.023
0.00522017 -0.0118833 0.0214003
0.004 -0.014372 0.02025
-0.0132876 -0.00117975 0.0196477
-0.014068 -0.0035 0.01825
0.00505776 -0.0115711 0.0172381
0.00375 -0.01325 0.015956
-0.0135558 0.00341279 0.0159894
-0.014567 0.0005 0.01475
0.00589317 -0.0100921 0.0144434
0.004 -0.012 0.013298
0.00655481 -0.00927282 0.0141127
0.00575 -0.010028 0.01175
0.00708473 -0.00827433 0.0124456
0.00675 -0.008549 0.00975
0.00823956 -0.00626046 0.010188
0.008 -0.0065 0.007921
0.00963185 -0.00286624 0.0066339
0.0085 -0.00505 0.006
-0.00884381 0.0128671 0.00790132
-0.00725 0.01353 0.005
-0.00112749 0.0134024 0.00590864
-0.0035 0.013557 0.00375
0.0103915 0.000923574 0.00511191
0.009562 0.001 0.0025
0.0104143 0.00486455 0.00360588
0.01 0.00375 0.001746
0.0090118 0.00915013 0.00243819
0.00775 0.01125 0.001455
0.00380489 -0.0139535 0.0250154
0.00275 -0.016051 0.02525
-0.0135663 -0.00327197 0.0215398
-0.014073 -0.00675 0.02225
-0.013651 -0.00371296 0.0211085
-0.014189 -0.0055 0.0195
0.00438158 -0.0125113 0.0169636
0.00275 -0.015049 0.01775
-0.0136945 -0.00199105 0.0187596
-0.014689 -0.0025 0.016
0.00420457 -0.0117395 0.0137911
0.002567 -0.01325 0.01375
-0.0135679 0.00333791 0.0158793
-0.015 0.003 0.012818
-0.0138558 0.00555623 0.0142884
-0.01475 0.00525 0.011546
0.00572944 -0.00999518 0.0121779
0.004051 -0.01125 0.01025
-0.0126408 0.00963931 0.0107066
-0.014 0.008327 0.009
0.00661519 -0.00858738 0.00998258
0.005886 -0.009 0.0075
-0.00890316 0.0128659 0.00774882
-0.01125 0.011551 0.00625
0.0092923 -0.00352137 0.00644373
0.0085 -0.003871 0.00425
-0.00721251 0.0133785 0.00513632
-0.00575 0.013557 0.003
0.000604054 0.0134738 0.00367506
-0.00125 0.014 0.001754
0.000706216 0.0135321 0.00320252
0.0025 0.01405 0.001
0.0100472 0.00723137 0.00316012
0.00906 0.007 0.0005
0.00902536 0.00918009 0.00238173
0.008511 0.009 0
0.00517833 0.0129959 0.00247063
0.0055 0.01325 -0.000344
0.00340818 -0.0150671 0.0231555
0.00225 -0.01705 0.02175
0.00313211 -0.0146093 0.0179883
0.00225 -0.016379 0.0195
-0.0140626 -0.00337258 0.0182669
-0.01475 -0.0055 0.017388
0.00379211 -0.0131015 0.016406
0.00175 -0.01488 0.0155
-0.0145278 -0.00219714 0.0162898
-0.01525 -0.002 0.013881
-0.0144246 0.00122429 0.0147696
-0.0155 5.6e-05 0.0125
0.00406137 -0.0119218 0.0134459
0.0025 -0.01275 0.011156
-0.0134958 0.00860051 0.00980386
-0.014573 0.00625 0.0095
0.00612862 -0.00900156 0.00903472
0.004546 -0.01075 0.008
-0.013647 0.00851846 0.0095627
-0.01305 0.00975 0.007
0.00850392 -0.00494527 0.00608103
0.007 -0.00725 0.005723
-0.00960721 0.0124714 0.00729917
-0.00975 0.012572 0.0045
-0.00722376 0.0134239 0.00509542
-0.00825 0.013073 0.003
0.00884069 -0.00349456 0.0048433
0.0085 -0.002256 0.00175
-0.00289442 0.0135153 0.00394783
-0.00375 0.013557 0.001
0.00967008 0.00111554 0.00268649
0.009 0.0015 0.000181
0.00128898 0.0138042 0.00163721
0.00125 0.01406 -0.0005
0.0094761 0.00674949 0.00145835
0.009 0.0045 -0.000825
0.00852806 0.00932244 0.000849145
0.007053 0.01075 -0.00125
0.00286444 -0.0157925 0.0250466
0.001533 -0.01825 0.02425
-0.0140461 -0.00626703 0.0217427
-0.014556 -0.009 0.02125
-0.0141991 -0.00708692 0.0215949
-0.014694 -0.008 0.019
0.00286747 -0.0151402 0.0184418
0.00075 -0.01675 0.017457
0.00176299 -0.0146968 0.0156474
4.6e-05 -0.01575 0.01525
0.00175909 -0.0147517 0.0156032
0.000387 -0.01475 0.0135
0.000809404 -0.0146455 0.0138229
0.000758 -0.014 0.01175
-0.0146974 0.00275813 0.0132186
-0.015556 0.00175 0.01075
[...]
CELL_DATA 799
SCALARS radius float
LOOKUP_TABLE default
0.115444
0.937083
0.0670905
0.936498
0.0751573
0.999113
0.0797152
0.935403
0.10032
0.887788
0.108995
0.142249
0.13709
1.15318
0.0762695
0.558775
0.0920721
0.887608
0.063225
0.4915
0.0709214
0.812409
0.0568564
0.154195
0.147706
0.490103
0.132543
0.810553
0.074606
0.558233
0.0755739
0.557397
0.0826956
0.88706
0.0556262
0.590083
0.0563703
0.48685
0.0850464
0.789734
0.11699
0.807499
0.0676122
0.181681
0.102684
0.514905
0.0600263
0.486348
0.11105
0.807405
0.0941036
0.736962
0.106583
0.589841
0.129317
0.332208
0.134412
0.324706
0.0796629
0.709541
0.0626538
0.734201
0.0689214
0.551262
0.0861175
0.587761
0.0599481
0.240716
0.0922136
0.322908
0.0969698
0.451906
0.100952
0.710605
0.117181
0.16486
0.148427
0.177387
0.165084
0.514362
0.133321
0.511359
0.0832201
0.465839
0.0896942
0.707425
0.106321
0.707261
0.0778757
0.708989
0.133015
0.550922
0.0725812
0.587588
0.0981487
0.574612
0.133825
0.237124
0.147636
0.302986
0.136403
0.449277
0.101226
0.706459
0.0650463
0.734095
0.0647839
0.733892
0.0726001
0.55022
0.0533706
0.546085
0.114895
0.216267
0.150921
0.180237
0.170348
0.301139
0.0926705
0.447572
0.100602
0.646784
0.12734
0.434473
0.0908256
0.155042
0.149548
0.540459
0.0640047
0.572182
0.0894163
0.511083
0.0997253
0.50325
0.0694615
0.463726
0.0901
0.429902
0.0983074
0.645135
0.0760153
0.649333
0.0810842
0.433637
0.0960331
0.495279
0.13119
0.236011
0.114401
0.170794
0.151328
0.210527
0.180629
0.462605
0.138934
0.291506
0.167084
0.216906
0.104881
0.644914
0.134845
0.492191
0.116438
0.197381
0.108792
0.540285
0.0893036
0.441566
0.0559429
0.571963
0.0700125
0.182158
0.171594
0.50249
0.106893
0.271922
0.117488
0.4888
0.127645
0.642943
0.0987346
0.542713
0.0637798
0.649118
0.077227
0.419553
0.0690169
0.491664
0.0715
0.489478
0.0944711
0.230212
0.140165
0.161934
0.152283
0.567603
0.0692364
0.449365
0.116666
0.458389
0.0966704
0.457226
0.0763699
0.428023
0.0848236
0.473155
0.0738351
0.542215
0.131131
0.295868
0.116224
0.41787
0.104944
0.190751
0.178139
0.415278
0.0672259
0.441117
0.133539
0.436999
0.0781914
0.451643
0.102769
0.150166
0.14509
0.488332
0.077676
0.446883
0.0838014
0.268286
0.164064
0.426288
0.11217
0.209438
0.200276
0.539647
0.0670049
0.648696
0.0893374
0.405544
0.124252
0.264942
0.087407
0.194008
0.110578
0.450409
0.0839062
0.220381
0.19958
0.451081
0.0773981
0.436694
0.072312
0.216092
0.12782
0.443704
0.0856815
0.185093
0.17585
0.289213
0.170252
0.411287
0.0951713
0.471717
0.104856
0.154891
0.149084
0.648331
0.097341
0.539349
0.0925446
0.257266
0.159283
0.390635
0.100847
0.184381
0.17227
0.190715
0.177419
0.413896
0.103508
0.449019
0.0913602
0.299862
0.105138
0.449296
0.0711424
0.383303
0.129121
0.485407
0.105271
0.393718
0.0952465
0.402183
0.128401
0.268034
0.144025
0.260555
0.236766
0.199108
0.186454
0.563033
0.0906117
0.383111
0.0623759
0.454733
0.0721065
0.465185
0.127379
0.192099
0.172921
0.23505
0.116939
0.413304
0.130319
0.44804
0.0956067
0.328243
0.132317
0.219918
0.137795
0.298079
0.107937
0.341031
0.0792311
0.430998
0.160408
0.206996
0.189276
0.440999
0.106054
0.392708
0.144934
0.401263
0.155275
0.265275
0.120595
0.410081
0.0897234
0.466084
0.0735909
0.464308
0.150599
0.562061
0.0983147
0.45358
0.135258
0.449535
0.0755914
0.448916
0.14327
0.389915
0.0957537
0.387654
0.155929
0.327837
0.0996732
0.324776
0.125824
0.225958
0.119142
0.216675
0.19623
0.423461
0.0846809
0.255365
0.127452
0.439918
0.113175
0.37643
0.12485
0.386014
0.133793
0.396831
0.0996387
0.388743
0.120096
0.458965
0.101308
0.177665
0.169433
0.55608
0.0724224
0.382426
0.0925531
0.150851
0.147209
0.463961
0.080106
0.460738
0.117927
0.259308
0.153445
0.23095
0.22049
0.379055
0.116265
0.428
0.0892868
0.320824
0.106722
0.317283
0.138515
0.248064
0.105103
0.22387
0.108719
0.42279
0.0890134
0.169933
0.162613
0.24385
0.174828
0.373665
0.102421
0.411631
0.101781
0.409271
0.169648
0.250293
0.24059
0.384071
0.12538
0.408365
0.106247
0.270366
0.134509
0.386537
0.0828191
0.385646
0.0890195
0.555054
0.0885049
0.275902
0.104914
0.374437
0.129948
0.443998
0.0848109
0.431549
0.0884793
0.443266
0.0786849
0.250909
0.160995
0.230101
0.200084
0.377007
0.164437
0.426404
0.0786945
0.317584
0.165383
0.310545
0.0767453
0.220865
0.208645
0.241601
0.132698
0.339944
0.103142
0.413434
0.097234
0.231643
0.192074
0.248739
0.182792
0.24067
0.198594
0.378581
0.171875
0.341561
0.166402
0.266368
0.112933
0.366384
0.163872
0.364272
0.108602
0.338912
0.0930759
0.267031
0.182843
0.531331
0.0849616
0.530882
0.0928026
0.203534
0.197692
0.35022
0.104458
0.272832
0.112127
0.221857
0.124386
0.423908
0.0984759
0.430627
0.0966394
0.310842
0.10676
0.300209
0.173465
0.373285
0.0991414
0.27951
0.139057
0.30187
0.158837
0.36956
0.10149
0.301074
0.129287
0.198136
0.191957
0.215173
0.205492
0.338503
0.0961849
0.397672
0.107624
0.296704
0.0913463
0.36896
0.101551
0.399314
0.126894
0.397098
0.0900755
0.338711
0.126162
0.257968
0.250541
0.361422
0.111961
0.361233
0.187302
0.255132
0.218938
0.335868
0.173962
0.365738
0.111888
0.364317
0.125202
0.480088
0.0849948
0.478929
0.11873
0.20609
0.192015
0.348052
0.126464
0.26756
0.146376
0.212097
0.194402
0.217647
0.203162
0.353099
0.0864853
0.35867
0.0871023
0.309153
0.168416
0.329677
0.160089
0.326886
0.173177
0.291504
0.155862
0.36233
0.169112
0.276439
0.152179
0.322286
0.0992829
0.297356
0.137389
0.195134
0.191094
0.328677
0.173968
0.325419
0.179171
0.23478
0.219702
0.368119
0.0994557
0.365844
0.104925
0.292578
0.191171
0.23516
0.227392
0.343396
0.125174
0.288879
0.182746
0.349824
0.155858
0.262095
0.192202
0.280727
0.133463
0.324757
0.135685
0.303591
0.177207
0.31953
0.109998
0.316875
0.184442
0.339032
0.0909923
0.337244
0.158905
0.360764
0.106486
0.465855
0.104324
0.46491
0.102993
0.29865
0.12304
0.45446
0.094547
0.413796
0.147799
0.291127
0.225031
0.202813
0.195718
0.396873
0.130464
0.344887
0.118965
0.260828
0.244455
0.339123
0.151326
0.351237
0.132733
0.356178
0.111089
0.330245
0.128622
0.194114
0.188214
0.284006
0.127414
0.28665
0.197342
0.31355
0.162259
0.251291
0.229463
0.241544
0.209963
0.368367
0.150092
0.319128
0.135424
0.281409
0.183903
0.27081
0.158092
0.307922
0.196939
0.271562
0.159297
0.335281
0.146991
0.286432
0.121577
0.307015
0.150268
0.28277
0.215104
0.262359
0.162436
0.33752
0.15273
0.290207
0.144169
0.213711
0.202933
0.245681
0.222688
0.277601
0.266911
0.343601
0.1271
0.339946
0.215324
0.325049
0.176948
0.306535
0.0939391
0.303839
0.192705
0.272867
0.206754
0.18781
0.176401
0.190481
0.179863
0.225578
0.217373
0.44302
0.17759
0.252493
0.218949
0.236805
0.22517
0.275557
0.189362
0.260585
0.221755
0.346461
0.209857
0.238551
0.22825
0.318618
0.182589
0.294052
0.152641
0.281379
0.194899
0.311153
0.288599
0.280035
0.26402
0.275485
0.238132
0.281249
0.200342
0.322937
0.19857
0.315987
0.145192
0.24219
0.229813
0.287328
0.274396
0.294847
0.205815
0.277463
0.232957
0.264174
0.246138
0.224199
0.217512
0.243731
0.223054
0.276902
0.265654
0.27004
0.237946
0.286205
0.250961
0.260608
0.239562
0.2421
0.222493
0.26704
0.246624
0.221066
0.212888
0.233049
0.221452
0.262729
0.245199
0.241066
0.229246
0.258614
0.235197
0.256912
0.214411
0.27536
0.261501
0.318282
0.204044
0.309841
0.276982
0.263141
0.233041
0.308294
0.191776
0.300918
0.272324
0.294503
0.223573
0.275426
0.214808
0.289296
0.235354
0.222276
0.216536
