# vtk DataFile Version 3.0
Tree
ASCII
DATASET POLYDATA
POINTS 600 float
-0.004 0.02 0.0265
0.0065 0.01 0.026302
0.00461 0.0117065 0.0248517
0.00725 0.009063 0.02275
0.00669862 0.00931291 0.0233525
0.008403 0.00575 0.023
0.002251 0.0141968 0.0248625
0.004365 0.0135 0.02175
0.00790409 0.00703517 0.022511
0.009056 0.00525 0.02075
0.00808722 0.00597695 0.0227465
0.00825 0.001955 0.02325
0.00708459 0.00913797 0.0229307
0.00752 0.0095 0.0185
-0.00062446 0.0168663 0.0256158
0.00025 0.016072 0.02175
0.00379436 0.0135481 0.0220304
0.004366 0.0125 0.01775
0.00838187 0.00368813 0.0223383
0.009 0.00125 0.020857
0.00844665 0.00644325 0.021229
0.009558 0.00625 0.01675
-0.000615931 0.0166789 0.0240308
-0.00225 0.01706 0.02175
-1.8076e-05 0.0160723 0.0219533
0.0005 0.014557 0.0175
0.00895791 0.00666764 0.0180726
0.00805 0.00875 0.015
-0.0017738 0.0168801 0.0220508
-0.002 0.01651 0.0195
0.0039255 0.012853 0.0185907
0.002322 0.013 0.0155
0.00331617 0.0129089 0.0174162
0.00525 0.010582 0.01375
0.00867865 0.00157835 0.0213796
0.00825 -0.0025 0.020887
0.0089036 0.0013485 0.0210138
0.010057 0.001 0.01675
0.00936184 0.00644078 0.0168637
0.01 0.00633 0.0135
0.00833589 -0.000408775 0.0217885
0.007057 -0.00475 0.02525
-0.00210714 0.017006 0.0218402
-0.0055 0.01706 0.0205
-0.00214893 0.0164685 0.0197936
-0.0035 0.0155 0.016678
0.00227488 0.0130031 0.0159065
-0.0005 0.01325 0.013613
0.00949753 0.00668144 0.0147014
0.008371 0.0085 0.01175
-0.00448214 0.0170438 0.0209021
-0.008582 0.01475 0.02325
0.00840707 -0.00126618 0.0210847
0.00901 -0.0025 0.0185
0.00991331 0.00146152 0.0174844
0.010862 0.00225 0.0145
0.00375904 0.0121328 0.0156681
0.00275 0.011853 0.012
0.00498744 0.0109296 0.0138129
0.00625 0.010074 0.0105
-0.00768532 0.0148793 0.0225461
-0.010084 0.01125 0.02275
0.00822234 -0.00238946 0.0208828
0.00757 -0.0055 0.02025
-0.00519464 0.0170551 0.0206206
-0.007 0.015517 0.0175
0.00999924 0.000992298 0.0168472
0.01025 -0.001 0.014349
0.00985334 0.00617615 0.0139288
0.01107 0.00375 0.0115
0.00522509 0.0107434 0.012391
0.00425 0.01125 0.010046
0.00746163 -0.00352975 0.0237235
0.00675 -0.006887 0.023
-0.00672437 0.0155287 0.0220529
-0.009 0.014827 0.0205
0.00872758 -0.00241816 0.0192725
0.0085 -0.005 0.017556
-0.00362766 0.0155484 0.0171352
-0.0055 0.014566 0.01475
-0.000382039 0.0132567 0.0138953
-0.00325 0.013556 0.012
-0.000445738 0.0132531 0.0137428
0 0.01256 0.01025
0.00909047 0.00761302 0.0126341
0.01005 0.00775 0.009
-0.0099748 0.011421 0.0227487
-0.01175 0.00875 0.02292
-0.0107961 0.00997223 0.0224938
-0.011403 0.00775 0.0205
-0.00892164 0.0130119 0.0226555
-0.010689 0.0115 0.019
-0.00682755 0.0156571 0.0182376
-0.00925 0.013551 0.01675
0.0100222 -0.000729556 0.0152095
0.00925 -0.004049 0.01425
0.0101817 -0.000918867 0.0146071
0.011053 0.00025 0.01175
0.0105485 0.00500324 0.0122294
0.011082 0.00525 0.00925
0.00625327 0.0102444 0.0106994
0.00825 0.01 0.008277
0.00683401 -0.00611278 0.0235682
0.005571 -0.00975 0.02525
-0.011177 0.00842834 0.0216962
-0.012 0.0045 0.021781
0.00763427 -0.00527463 0.0201725
0.007054 -0.00825 0.01925
0.00736735 -0.0066433 0.0197482
0.007572 -0.00725 0.017
-0.00764576 0.0147957 0.0172777
-0.008 0.013566 0.01425
-0.00763101 0.013995 0.0149247
-0.00625 0.013556 0.0115
0.010906 0.00403997 0.0114636
0.0115 0.001972 0.009
0.00425 0.0113974 0.0103411
0.002857 0.0125 0.00775
0.00701203 0.0101515 0.00977886
0.00625 0.011545 0.007
0.00635407 -0.00749493 0.0242073
0.006 -0.010333 0.022
-0.0116153 0.00651297 0.0213834
-0.01225 0.004568 0.01925
-0.0113352 0.0079535 0.0208589
-0.012 0.009 0.017531
-0.00907193 0.0135649 0.0167525
-0.011072 0.01125 0.01575
-0.00801634 0.013611 0.0143301
-0.00925 0.01257 0.01275
0.0102186 -0.000962679 0.0144677
0.010029 -0.00325 0.01075
-0.000612326 0.0129853 0.0118214
-0.00275 0.013073 0.00875
-0.0002633 0.0128125 0.0105057
0 0.013057 0.00725
0.0100095 0.00742617 0.00939291
0.011002 0.00675 0.00625
0.00577353 -0.00920572 0.0247101
0.00506 -0.0115 0.024
-0.0119456 0.00460954 0.0216375
-0.012573 0.00025 0.02175
0.00700112 -0.00809619 0.0193145
0.006072 -0.01025 0.01875
-0.0117128 0.00803257 0.0194033
-0.01275 0.0065 0.01688
0.00762635 -0.00707742 0.0171794
0.008 -0.007327 0.0145
0.00930252 -0.00353306 0.013997
0.008555 -0.006 0.01225
-0.00690192 0.0136427 0.0120359
-0.007 0.013364 0.0095
0.011183 0.00304015 0.00977937
0.01106 0.00325 0.007
0.0103638 0.00737484 0.00774789
0.010059 0.00875 0.0055
0.00693208 0.010758 0.00813722
0.008346 0.011 0.005
0.00578768 -0.0102307 0.0223251
0.00525 -0.012049 0.02125
-0.0121338 0.00330168 0.0216713
-0.013 0.00175 0.01886
0.00762635 -0.00707742 0.0171794
0.006555 -0.0095 0.0165
-0.0120045 0.00860022 0.017797
-0.01275 0.008563 0.01475
-0.00913322 0.0126965 0.013303
-0.0115 0.010871 0.01275
-0.00921497 0.0126079 0.0129159
-0.00925 0.012529 0.01025
0.0101672 -0.00220444 0.0117012
0.010542 -0.0015 0.00825
-0.00279906 0.0132438 0.0090464
-0.00475 0.013557 0.00675
-0.000364256 0.0131182 0.00773182
-0.001 0.013555 0.00525
0.00645373 0.0114033 0.00705209
0.006 0.0125 0.004529
-0.000109277 0.0130754 0.00739455
0.0025 0.013074 0.00425
-0.012762 0.000666537 0.0219118
-0.01375 -0.00175 0.022418
-0.0126902 0.000508253 0.0218503
-0.01325 -0.00125 0.019546
0.006183 -0.00987847 0.0186574
0.005073 -0.01175 0.017
-0.0125035 0.0065814 0.017605
-0.013582 0.00325 0.01575
0.0071794 -0.00805346 0.0165509
0.0065 -0.009377 0.014
0.00689714 -0.0086221 0.0148169
0.00725 -0.00805 0.012
0.00868613 -0.00543893 0.0124067
0.00805 -0.00675 0.01
0.00997935 -0.00291423 0.010809
0.00925 -0.004063 0.00825
0.0104249 -0.00130542 0.00879439
0.010552 0 0.00625
0.0105091 7.22656e-05 0.0065742
0.010544 0.00175 0.0045
0.0106632 0.00673868 0.00650909
0.010542 0.00475 0.0035
0.0106171 0.00598298 0.00536564
0.010042 0.00725 0.003
0.00512634 -0.011056 0.0244235
0.00375 -0.014064 0.02525
-0.0133772 -0.00118421 0.0220423
-0.013557 -0.00375 0.021
-0.0130991 -0.000494611 0.0201011
-0.013572 -0.00025 0.01775
0.00668268 -0.00902974 0.0143758
0.0055 -0.010877 0.015
-0.012827 0.00558198 0.0170485
-0.014053 0.00575 0.014
-0.0127914 0.00838339 0.015095
-0.01375 0.007879 0.0125
-0.011036 0.0111791 0.0126193
-0.01275 0.009551 0.01075
-0.00951494 0.0124222 0.0112213
-0.01125 0.011524 0.009
-0.00932892 0.01253 0.0102827
-0.009 0.012864 0.0075
0.0105069 -0.00144163 0.00841332
0.0095 -0.003 0.00597
0.0105357 2.74609e-05 0.0063732
0.009581 -0.00075 0.00425
0.00113301 0.0131422 0.00542715
0.00075 0.013557 0.003
0.0100594 0.00718791 0.00353372
0.009057 0.00925 0.00225
0.00594751 0.0123089 0.00486233
0.00475 0.01325 0.002044
0.00430682 -0.0129534 0.0245796
0.0035 -0.01537 0.023
0.00522017 -0.0118833 0.0214003
0.004 -0.014372 0.02025
-0.0132876 -0.00117975 0.0196477
-0.014068 -0.0035 0.01825
0.00505776 -0.0115711 0.0172381
0.00375 -0.01325 0.015956
-0.0135558 0.00341279 0.0159894
-0.014567 0.0005 0.01475
0.00589317 -0.0100921 0.0144434
0.004 -0.012 0.013298
0.00655481 -0.00927282 0.0141127
0.00575 -0.010028 0.01175
0.00708473 -0.00827433 0.0124456
0.00675 -0.008549 0.00975
0.00823956 -0.00626046 0.010188
0.008 -0.0065 0.007921
0.00963185 -0.00286624 0.0066339
0.0085 -0.00505 0.006
-0.00884381 0.0128671 0.00790132
-0.00725 0.01353 0.005
-0.00112749 0.0134024 0.00590864
-0.0035 0.013557 0.00375
0.0103915 0.000923574 0.00511191
0.009562 0.001 0.0025
0.0104143 0.00486455 0.00360588
0.01 0.00375 0.001746
0.0090118 0.00915013 0.00243819
0.00775 0.01125 0.001455
0.00380489 -0.0139535 0.0250154
0.00275 -0.016051 0.02525
-0.0135663 -0.00327197 0.0215398
-0.014073 -0.00675 0.02225
-0.013651 -0.00371296 0.0211085
-0.014189 -0.0055 0.0195
0.00438158 -0.0125113 0.0169636
0.00275 -0.015049 0.01775
-0.0136945 -0.00199105 0.0187596
-0.014689 -0.0025 0.016
0.00420457 -0.0117395 0.0137911
0.002567 -0.01325 0.01375
-0.0135679 0.00333791 0.0158793
-0.015 0.003 0.012818
-0.0138558 0.00555623 0.0142884
-0.01475 0.00525 0.011546
0.00572944 -0.00999518 0.0121779
0.004051 -0.01125 0.01025
-0.0126408 0.00963931 0.0107066
-0.014 0.008327 0.009
0.00661519 -0.00858738 0.00998258
0.005886 -0.009 0.0075
-0.00890316 0.0128659 0.00774882
-0.01125 0.011551 0.00625
0.0092923 -0.00352137 0.00644373
0.0085 -0.003871 0.00425
-0.00721251 0.0133785 0.00513632
-0.00575 0.013557 0.003
0.000604054 0.0134738 0.00367506
-0.00125 0.014 0.001754
0.000706216 0.0135321 0.00320252
0.0025 0.01405 0.001
0.0100472 0.00723137 0.00316012
0.00906 0.007 0.0005
0.00902536 0.00918009 0.00238173
0.008511 0.009 0
0.00517833 0.0129959 0.00247063
0.0055 0.01325 -0.000344
0.00340818 -0.0150671 0.0231555
0.00225 -0.01705 0.02175
0.00313211 -0.0146093 0.0179883
0.00225 -0.016379 0.0195
-0.0140626 -0.00337258 0.0182669
-0.01475 -0.0055 0.017388
0.00379211 -0.0131015 0.016406
0.00175 -0.01488 0.0155
-0.0145278 -0.00219714 0.0162898
-0.01525 -0.002 0.013881
-0.0144246 0.00122429 0.0147696
-0.0155 5.6e-05 0.0125
0.00406137 -0.0119218 0.0134459
0.0025 -0.01275 0.011156
-0.0134958 0.00860051 0.00980386
-0.014573 0.00625 0.0095
0.00612862 -0.00900156 0.00903472
0.004546 -0.01075 0.008
-0.013647 0.00851846 0.0095627
-0.01305 0.00975 0.007
0.00850392 -0.00494527 0.00608103
0.007 -0.00725 0.005723
-0.00960721 0.0124714 0.00729917
-0.00975 0.012572 0.0045
-0.00722376 0.0134239 0.00509542
-0.00825 0.013073 0.003
0.00884069 -0.00349456 0.0048433
0.0085 -0.002256 0.00175
-0.00289442 0.0135153 0.00394783
-0.00375 0.013557 0.001
0.00967008 0.00111554 0.00268649
0.009 0.0015 0.000181
0.00128898 0.0138042 0.00163721
0.00125 0.01406 -0.0005
0.0094761 0.00674949 0.00145835
0.009 0.0045 -0.000825
0.00852806 0.00932244 0.000849145
0.007053 0.01075 -0.00125
0.00286444 -0.0157925 0.0250466
0.001533 -0.01825 0.02425
-0.0140461 -0.00626703 0.0217427
-0.014556 -0.009 0.02125
-0.0141991 -0.00708692 0.0215949
-0.014694 -0.008 0.019
0.00286747 -0.0151402 0.0184418
0.00075 -0.01675 0.017457
0.00176299 -0.0146968 0.0156474
4.6e-05 -0.01575 0.01525
0.00175909 -0.0147517 0.0156032
0.000387 -0.01475 0.0135
0.000809404 -0.0146455 0.0138229
0.000758 -0.014 0.01175
-0.0146974 0.00275813 0.0132186
-0.015556 0.00175 0.01075
-0.0150753 0.00251615 0.011799
-0.01525 0.00355 0.00925
-0.0139372 0.0077068 0.00943428
-0.014571 0.00675 0.00775
-0.0134973 0.00891191 0.00820198
-0.01407 0.00825 0.00625
0.00582882 -0.00907054 0.00772215
0.004871 -0.0095 0.00525
0.00723106 -0.00671718 0.00557845
0.00575 -0.007889 0.004
0.00849875 -0.00387207 0.00437128
0.00725 -0.00525 0.002955
-0.00655388 0.0134799 0.00370862
-0.007 0.013555 0.0015
0.00967008 0.00111554 0.00268649
0.00825 -0.000547 0.00025
-0.000714405 0.0138658 0.00195713
-0.001 0.014056 -0.0005
0.00216476 0.0139373 0.000959
0.003825 0.014 -0.00125
0.00929518 0.00589468 0.000590677
0.008353 0.0065 -0.00175
0.00859834 0.00653314 -0.000972203
0.00775 0.00825 -0.002046
-0.0144297 -0.00842238 0.0216332
-0.01475 -0.01075 0.022928
0.00225612 -0.0162424 0.0192923
0.00075 -0.0185 0.020662
0.00100759 -0.0164673 0.0178542
-0.00075 -0.01758 0.01775
-0.01467 -0.00544923 0.0174383
-0.01525 -0.00775 0.016563
-0.014694 -0.00546446 0.0174232
-0.0155 -0.005243 0.01525
-0.0148668 -0.00243131 0.0152488
-0.015556 -0.00425 0.0135
-0.0152045 -0.00314747 0.0141469
-0.015556 -0.003 0.01175
-0.015433 -0.00280661 0.0123789
-0.015556 -0.00125 0.01025
0.00257964 -0.0127079 0.0113551
0.001 -0.013546 0.00925
-0.0153493 0.00200944 0.0108511
-0.015556 0.00125 0.00825
0.00460617 -0.0104874 0.00820389
0.0025 -0.01231 0.00725
-0.0144357 0.00676988 0.0081645
-0.015189 0.0045 0.0065
-0.0136631 0.00877014 0.00707051
-0.01325 0.009554 0.005
-0.01078 0.0118479 0.00630221
-0.012 0.011371 0.004
-0.0100327 0.0123995 0.00480069
-0.010549 0.01225 0.00275
0.0072819 -0.00511883 0.00318411
0.00558 -0.00675 0.00175
0.00727233 -0.00515818 0.00311538
0.007 -0.004299 0.00075
-0.00663386 0.013529 0.00202802
-0.0055 0.013557 -0.00025
-0.00115719 0.0139742 0.000451565
-0.003 0.014056 -0.00125
0.00904092 0.0012912 0.000586302
0.008 0.00075 -0.001756
0.00861414 0.00137451 -0.000478202
0.008 0.00293 -0.0025
0.00704217 0.0106361 -0.00116621
0.00575 0.011567 -0.00275
0.00293246 0.014008 -0.00054513
0.002549 0.01425 -0.003
0.00171287 -0.0177683 0.0246401
0.00025 -0.019549 0.0255
0.00158696 -0.0181055 0.024367
0 -0.019817 0.02275
-0.0145187 -0.00897883 0.0213754
-0.01475 -0.010953 0.02075
-0.0145881 -0.00957108 0.0211878
-0.015057 -0.01 0.019
-0.00041545 -0.0172684 0.0176113
-0.00175 -0.0175 0.016558
-0.00155235 -0.0173675 0.0166243
-0.002912 -0.017 0.015
-0.0149507 -0.00635754 0.0167206
-0.015556 -0.0075 0.014
0.000513721 -0.0147186 0.0135969
-0.002 -0.015558 0.013
-0.015433 -0.00410911 0.0135164
-0.015556 -0.006 0.012
-0.000642591 -0.0151047 0.0133223
-0.0015 -0.014865 0.01075
-0.0154933 -0.00225387 0.0111607
-0.015556 -0.00275 0.009
-0.015524 -0.00225198 0.00992698
-0.015556 -0.001 0.00775
-0.0155002 0.00159505 0.00870729
-0.015556 0.00225 0.0065
0.00397432 -0.0110342 0.00791772
0.00325 -0.011048 0.00525
-0.0147219 0.00590733 0.00753199
-0.015029 0.00625 0.00475
-0.0136337 0.00888082 0.0060466
-0.01425 0.008049 0.00375
0.00494762 -0.00929257 0.00541109
0.00405 -0.00925 0.003
-0.0118535 0.0112797 0.00424671
-0.012871 0.0105 0.00225
-0.0082016 0.0131727 0.00311054
-0.00925 0.013028 0.001
0.00644573 -0.0057781 0.0022364
0.005564 -0.00575 -0
-0.0062937 0.0135374 0.00134461
-0.00775 0.013061 -0.00075
0.00835443 -0.000491826 0.000595957
0.007 -0.00225 -0.001299
0.00769888 -0.00114333 -0.000500712
0.007058 -0.00075 -0.0025
0.00245338 0.0141501 -0.00155163
0.00025 0.014556 -0.003
0.0084266 0.00650994 -0.00151666
0.007555 0.005 -0.0035
0.00781511 0.00792645 -0.00199463
0.006579 0.00925 -0.00375
0.00250501 0.014204 -0.00233375
0.0045 0.01275 -0.003841
0.000247438 -0.0193155 0.0252948
-0.001431 -0.02075 0.02575
-0.0146635 -0.0105065 0.022648
-0.01475 -0.0135 0.023425
0.000157827 -0.0193424 0.0228474
-0.00125 -0.020078 0.02125
-0.000649635 -0.0174865 0.0177084
-0.002114 -0.01975 0.0195
-0.00120609 -0.0183466 0.0183892
-0.00325 -0.019009 0.01775
-0.0150467 -0.0100727 0.0190701
-0.015556 -0.01075 0.01675
-0.0151881 -0.00750764 0.0164343
-0.015556 -0.0095 0.01525
-0.00280221 -0.0170729 0.0152985
-0.00475 -0.016812 0.014
-0.00194704 -0.0154305 0.012976
-0.00375 -0.01575 0.012454
-0.00144491 -0.0149793 0.0116503
-0.00325 -0.015082 0.01075
-0.0155125 -0.00530319 0.0122157
-0.015553 -0.00575 0.00975
-0.00140631 -0.0148651 0.0108221
-0.001 -0.014515 0.0085
0.00265307 -0.0121321 0.00742902
0.00075 -0.0135 0.007241
-0.0155002 0.00159505 0.00870729
-0.015556 0.00025 0.006
0.00258266 -0.012214 0.00734667
0.0015 -0.012366 0.005
-0.0150769 0.00485256 0.0065462
-0.015556 0.0035 0.00425
0.00321384 -0.0110063 0.00533025
0.0025 -0.010911 0.00325
-0.0140356 0.00840673 0.00416008
-0.013907 0.009 0.00225
0.00562755 -0.00666959 0.00177633
0.00425 -0.00805 0.001
-0.0106088 0.0122015 0.00294028
-0.0115 0.011863 0.0005
-0.00898451 0.0130278 0.00118537
-0.0095 0.012862 -0.00075
0.00589865 -0.00554984 0.000566299
0.00575 -0.00425 -0.001546
-0.0028303 0.0138915 -0.0010555
-0.0045 0.013562 -0.0025
-0.00232837 0.0139163 -0.00060338
-0.00175 0.014082 -0.00325
0.00807495 0.000968577 -0.00158905
0.007 0.00075 -0.003758
0.00754822 0.00114147 -0.0027378
0.007 0.00275 -0.004372
0.00799197 0.00613587 -0.00250483
0.007003 0.00675 -0.00475
0.00659007 0.00921235 -0.00367871
0.005559 0.01025 -0.005
0.00330756 0.0135359 -0.00326956
0.00325 0.013067 -0.00525
-0.000689657 -0.0201304 0.0252729
-0.00225 -0.02155 0.024
-0.000707008 -0.0198669 0.0221855
-0.0025 -0.02125 0.022113
-0.014742 -0.0118039 0.0226271
-0.015057 -0.014 0.021
-0.0147496 -0.0107965 0.0206932
-0.015059 -0.0125 0.0195
-0.015045 -0.012075 0.0195772
-0.015556 -0.01275 0.01775
-0.00313244 -0.0187415 0.0178231
-0.00575 -0.019 0.017098
-0.00410064 -0.0187075 0.0173237
-0.005 -0.018 0.015654
-0.00503717 -0.0181251 0.0159782
-0.007 -0.017529 0.01475
-0.0153862 -0.00924206 0.0153948
-0.015053 -0.0115 0.014
-0.00461671 -0.0168081 0.014184
-0.0065 -0.0165 0.013173
-0.0153233 -0.00747154 0.0145246
-0.015061 -0.0095 0.0125
-0.0034732 -0.0156388 0.0124264
-0.00525 -0.015572 0.01125
-0.015543 -0.00579096 0.0120647
-0.015058 -0.008 0.01075
-0.00302237 -0.0151819 0.0106881
-0.0045 -0.015556 0.0095
-0.00148472 -0.0147973 0.00983506
-0.00275 -0.015056 0.00825
-0.0154017 -0.00567702 0.00990904
-0.015059 -0.006 0.0075
-0.0153308 -0.00552944 0.00881633
-0.015556 -0.004 0.00675
-0.00120465 -0.0145501 0.00861727
-0.00125 -0.01406 0.006
-0.0155409 0.000298163 0.00662597
-0.015556 -0.002 0.00525
0.00154732 -0.0124234 0.0055286
-0.00025 -0.013069 0.00425
-0.0155515 0.000264449 0.00618779
-0.015556 0.001 0.00375
-0.0152688 0.00440709 0.00524606
-0.01525 0.005052 0.003
-0.0142285 0.00808884 0.00378195
-0.015 0.006826 0.00225
0.00246243 -0.0108964 0.00342568
0.00155 -0.01075 0.0015
0.00225633 -0.0106614 0.00251855
0.00275 -0.0095 0.00066
-0.0126493 0.0106475 0.00247411
-0.01325 0.01005 -0
0.00566439 -0.00568995 0.00016989
0.00425 -0.007 -0.000879
0.00511949 -0.00608707 -0.000423675
0.0045 -0.006 -0.002047
-0.00432918 0.0136232 -0.00217998
-0.0065 0.013364 -0.003
0.00574409 -0.00424595 -0.00141718
0.005559 -0.00275 -0.0035
0.00714771 0.000704652 -0.00330658
0.006058 -0.001 -0.00425
-0.00208116 0.0140342 -0.00274541
-0.003 0.01406 -0.00475
LINES 599 1797
2 2 1
2 6 2
2 12 3
2 2 4
2 10 5
2 14 6
2 16 7
2 4 8
2 20 9
2 8 10
2 18 11
2 4 12
2 12 13
2 0 14
2 24 15
2 6 16
2 30 17
2 10 18
2 36 19
2 8 20
2 38 21
2 14 22
2 42 23
2 22 24
2 24 25
2 20 26
2 26 27
2 22 28
2 44 29
2 16 30
2 46 31
2 30 32
2 58 33
2 18 34
2 62 35
2 34 36
2 66 37
2 26 38
2 68 39
2 34 40
2 72 41
2 28 42
2 64 43
2 28 44
2 78 45
2 32 46
2 82 47
2 38 48
2 84 49
2 42 50
2 60 51
2 40 52
2 76 53
2 36 54
2 54 55
2 32 56
2 56 57
2 56 58
2 100 59
2 74 60
2 86 61
2 52 62
2 106 63
2 50 64
2 92 65
2 54 66
2 130 67
2 48 68
2 114 69
2 58 70
2 116 71
2 40 72
2 102 73
2 50 74
2 74 75
2 52 76
2 76 77
2 44 78
2 78 79
2 46 80
2 80 81
2 80 82
2 134 83
2 48 84
2 136 85
2 90 86
2 88 87
2 86 88
2 124 89
2 60 90
2 90 91
2 64 92
2 126 93
2 66 94
2 148 95
2 94 96
2 96 97
2 68 98
2 98 99
2 70 100
2 118 101
2 72 102
2 138 103
2 88 104
2 140 105
2 62 106
2 142 107
2 106 108
2 162 109
2 92 110
2 128 111
2 110 112
2 150 113
2 98 114
2 152 115
2 70 116
2 116 117
2 100 118
2 176 119
2 102 120
2 158 121
2 104 122
2 122 123
2 104 124
2 164 125
2 110 126
2 126 127
2 112 128
2 168 129
2 96 130
2 194 131
2 82 132
2 172 133
2 132 134
2 178 135
2 84 136
2 200 137
2 120 138
2 204 139
2 122 140
2 182 141
2 108 142
2 184 143
2 124 144
2 186 145
2 108 146
2 146 147
2 94 148
2 192 149
2 112 150
2 150 151
2 114 152
2 152 153
2 136 154
2 154 155
2 118 156
2 156 157
2 120 158
2 234 159
2 140 160
2 160 161
2 146 162
2 188 163
2 144 164
2 214 165
2 128 166
2 216 167
2 166 168
2 220 169
2 130 170
2 222 171
2 132 172
2 172 173
2 134 174
2 254 175
2 156 176
2 230 177
2 174 178
2 226 179
2 160 180
2 206 181
2 180 182
2 236 183
2 142 184
2 238 185
2 144 186
2 274 187
2 162 188
2 244 189
2 188 190
2 246 191
2 148 192
2 248 193
2 170 194
2 194 195
2 170 196
2 224 197
2 196 198
2 256 199
2 154 200
2 258 201
2 200 202
2 294 203
2 138 204
2 262 205
2 180 206
2 266 207
2 182 208
2 208 209
2 190 210
2 242 211
2 186 212
2 276 213
2 164 214
2 214 215
2 166 216
2 280 217
2 168 218
2 218 219
2 218 220
2 284 221
2 196 222
2 250 223
2 198 224
2 224 225
2 178 226
2 292 227
2 202 228
2 296 229
2 176 230
2 298 231
2 204 232
2 300 233
2 158 234
2 234 235
2 208 236
2 304 237
2 184 238
2 306 239
2 212 240
2 310 241
2 210 242
2 312 243
2 210 244
2 278 245
2 190 246
2 282 247
2 192 248
2 248 249
2 222 250
2 320 251
2 220 252
2 324 253
2 174 254
2 328 255
2 198 256
2 330 257
2 202 258
2 258 259
2 228 260
2 260 261
2 232 262
2 338 263
2 206 264
2 340 265
2 264 266
2 266 267
2 238 268
2 302 269
2 236 270
2 308 271
2 242 272
2 272 273
2 240 274
2 352 275
2 212 276
2 276 277
2 244 278
2 278 279
2 216 280
2 318 281
2 246 282
2 360 283
2 252 284
2 404 285
2 250 286
2 364 287
2 252 288
2 366 289
2 226 290
2 370 291
2 290 292
2 372 293
2 228 294
2 334 295
2 260 296
2 336 297
2 230 298
2 298 299
2 232 300
2 300 301
2 268 302
2 380 303
2 270 304
2 386 305
2 268 306
2 348 307
2 270 308
2 388 309
2 240 310
2 310 311
2 272 312
2 394 313
2 280 314
2 356 315
2 282 316
2 398 317
2 314 318
2 358 319
2 286 320
2 362 321
2 284 322
2 406 323
2 288 324
2 460 325
2 286 326
2 326 327
2 254 328
2 328 329
2 256 330
2 416 331
2 292 332
2 332 333
2 294 334
2 374 335
2 296 336
2 420 337
2 262 338
2 426 339
2 264 340
2 428 341
2 340 342
2 342 343
2 302 344
2 382 345
2 306 346
2 346 347
2 346 348
2 438 349
2 348 350
2 350 351
2 274 352
2 396 353
2 352 354
2 354 355
2 314 356
2 400 357
2 318 358
2 402 359
2 316 360
2 456 361
2 320 362
2 362 363
2 326 364
2 410 365
2 288 366
2 412 367
2 330 368
2 466 369
2 290 370
2 414 371
2 332 372
2 422 373
2 334 374
2 472 375
2 374 376
2 474 377
2 342 378
2 480 379
2 344 380
2 380 381
2 344 382
2 484 383
2 304 384
2 490 385
2 384 386
2 386 387
2 308 388
2 440 389
2 388 390
2 392 391
2 390 392
2 444 393
2 312 394
2 394 395
2 354 396
2 448 397
2 316 398
2 506 399
2 356 400
2 508 401
2 358 402
2 454 403
2 322 404
2 458 405
2 322 406
2 516 407
2 364 408
2 514 409
2 408 410
2 410 411
2 366 412
2 464 413
2 370 414
2 522 415
2 368 416
2 526 417
2 416 418
2 418 419
2 336 420
2 420 421
2 372 422
2 476 423
2 338 424
2 478 425
2 424 426
2 482 427
2 378 428
2 542 429
2 428 430
2 488 431
2 382 432
2 434 433
2 432 434
2 492 435
2 384 436
2 556 437
2 350 438
2 494 439
2 390 440
2 560 441
2 438 442
2 500 443
2 392 444
2 446 445
2 444 446
2 446 447
2 396 448
2 504 449
2 398 450
2 510 451
2 400 452
2 452 453
2 402 454
2 580 455
2 360 456
2 456 457
2 404 458
2 586 459
2 324 460
2 518 461
2 408 462
2 588 463
2 412 464
2 464 465
2 368 466
2 468 467
2 466 468
2 468 469
2 422 470
2 470 471
2 376 472
2 530 473
2 376 474
2 532 475
2 470 476
2 534 477
2 424 478
2 536 479
2 378 480
2 540 481
2 426 482
2 538 483
2 432 484
2 486 485
2 484 486
2 546 487
2 430 488
2 488 489
2 436 490
2 552 491
2 434 492
2 554 493
2 442 494
2 558 495
2 442 496
2 562 497
2 440 498
2 566 499
2 496 500
2 570 501
2 450 502
2 502 503
2 448 504
2 576 505
2 502 506
2 574 507
2 452 508
2 578 509
2 450 510
2 582 511
2 454 512
2 512 513
2 462 514
2 514 515
2 406 516
2 516 517
2 460 518
2 518 519
2 462 520
2 594 521
2 524 522
2 592 523
2 414 524
2 598 525
2 418 526
2 596 527
2 526 528
2 528 529
2 472 530
2 530 531
2 474 532
2 532 533
2 476 534
2 534 535
2 478 536
2 536 537
2 482 538
2 538 539
2 480 540
2 540 541
2 430 542
2 544 543
2 542 544
2 544 545
2 486 546
2 548 547
2 546 548
2 550 549
2 548 550
2 550 551
2 490 552
2 552 553
2 492 554
2 554 555
2 436 556
2 556 557
2 494 558
2 558 559
2 498 560
2 560 561
2 496 562
2 562 563
2 500 564
2 564 565
2 498 566
2 568 567
2 566 568
2 568 569
2 564 570
2 570 571
2 504 572
2 572 573
2 506 574
2 574 575
2 572 576
2 576 577
2 508 578
2 578 579
2 512 580
2 580 581
2 510 582
2 584 583
2 582 584
2 584 585
2 458 586
2 586 587
2 520 588
2 590 589
2 588 590
2 590 591
2 522 592
2 592 593
2 520 594
2 594 595
2 528 596
2 596 597
2 524 598
2 598 599
CELL_DATA 599
SCALARS radius float
LOOKUP_TABLE default
0.124695
0.908441
0.0726128
0.907657
0.0815526
0.973927
0.0861758
0.906178
0.108856
0.84804
0.118497
0.153958
0.148374
1.12163
0.0821835
0.558383
0.0998625
0.847789
0.0689149
0.512013
0.0771917
0.786898
0.0613846
0.166152
0.159159
0.510368
0.144118
0.784421
0.080523
0.557698
0.0823193
0.556629
0.0898184
0.847017
0.0609964
0.587358
0.061755
0.506508
0.092733
0.739893
0.128497
0.780315
0.0731929
0.196091
0.110827
0.500648
0.0658016
0.50591
0.121375
0.780188
0.102256
0.676685
0.116635
0.587041
0.141526
0.360822
0.14599
0.352673
0.0865245
0.672071
0.0684427
0.672384
0.0760175
0.553182
0.0935302
0.584287
0.0659718
0.262472
0.100548
0.350721
0.105322
0.456599
0.111455
0.673585
0.127151
0.180408
0.162426
0.191456
0.178177
0.499905
0.146097
0.495711
0.0919197
0.48117
0.0984692
0.669022
0.116427
0.668783
0.0856787
0.671281
0.144931
0.552754
0.0789692
0.584057
0.107872
0.566479
0.147235
0.258556
0.160979
0.329084
0.148152
0.453181
0.112816
0.667605
0.0720466
0.672216
0.0720762
0.671892
0.0806671
0.55186
0.0583364
0.546556
0.125426
0.235813
0.164562
0.195761
0.18502
0.327078
0.100652
0.450922
0.111473
0.597232
0.140405
0.438862
0.100231
0.168688
0.162709
0.539225
0.0702372
0.563144
0.0989246
0.495324
0.109768
0.484121
0.077474
0.478582
0.0994609
0.426906
0.110355
0.594634
0.0852149
0.55539
0.0909385
0.437771
0.106651
0.509169
0.145767
0.259391
0.125734
0.186449
0.165199
0.229555
0.196955
0.477188
0.152941
0.316614
0.181476
0.240343
0.116213
0.594281
0.149852
0.505155
0.129669
0.217822
0.120059
0.538997
0.0985391
0.439832
0.0618435
0.562842
0.0780886
0.200503
0.188875
0.483014
0.119033
0.295344
0.127608
0.462224
0.143694
0.591088
0.111757
0.50306
0.0723806
0.554985
0.0875848
0.419002
0.0777806
0.504469
0.0799338
0.501597
0.106403
0.253017
0.15405
0.179154
0.168476
0.556725
0.077993
0.432413
0.132553
0.471893
0.10703
0.470415
0.0852865
0.424264
0.0968367
0.429461
0.0847322
0.502244
0.148227
0.330767
0.129934
0.416686
0.116958
0.210504
0.196586
0.415056
0.074943
0.439234
0.14719
0.433654
0.0871866
0.450944
0.115572
0.169158
0.16344
0.461498
0.088677
0.457077
0.0933868
0.291395
0.178196
0.42176
0.127068
0.232068
0.221916
0.497903
0.0776949
0.55417
0.102479
0.399314
0.139922
0.296193
0.0977171
0.216892
0.123621
0.448162
0.0954552
0.242212
0.219351
0.450162
0.0873034
0.433234
0.083409
0.240634
0.142337
0.423606
0.0990007
0.204929
0.194695
0.322294
0.189726
0.399057
0.110324
0.426923
0.123523
0.177751
0.171086
0.55344
0.113702
0.497392
0.107576
0.287612
0.178071
0.376918
0.115732
0.205488
0.191991
0.213211
0.198346
0.413196
0.116486
0.446154
0.10449
0.334359
0.117234
0.447608
0.0813585
0.35286
0.148601
0.456807
0.12179
0.365322
0.112073
0.39582
0.144941
0.298692
0.160499
0.282998
0.25716
0.225553
0.211218
0.444936
0.10665
0.355173
0.0745048
0.433444
0.0842102
0.427722
0.149432
0.216326
0.194728
0.262776
0.130732
0.412373
0.147502
0.444693
0.111111
0.329327
0.150544
0.248063
0.15543
0.332371
0.120354
0.264718
0.0997958
0.420617
0.182536
0.230504
0.210772
0.419235
0.126118
0.363572
0.168086
0.394496
0.176857
0.295617
0.134389
0.397148
0.106461
0.416395
0.0905571
0.412739
0.179061
0.442448
0.119251
0.431526
0.157873
0.424364
0.0901864
0.423256
0.170225
0.375811
0.112641
0.372116
0.181093
0.325249
0.114739
0.324395
0.144978
0.258432
0.136265
0.244405
0.221343
0.408831
0.0984994
0.293892
0.146681
0.417387
0.130769
0.359771
0.146869
0.351179
0.161395
0.387863
0.118522
0.375197
0.139559
0.401185
0.130937
0.209112
0.199423
0.426295
0.0910042
0.353929
0.118568
0.180184
0.175834
0.425442
0.0973535
0.419205
0.140178
0.308235
0.182398
0.258192
0.246498
0.357232
0.141079
0.413457
0.107036
0.314806
0.129278
0.313206
0.161976
0.276602
0.117194
0.249625
0.121226
0.407754
0.10513
0.197664
0.189149
0.28064
0.201204
0.355057
0.125913
0.365864
0.127846
0.360799
0.205541
0.278922
0.268109
0.347332
0.15906
0.394289
0.136263
0.320803
0.159601
0.340513
0.110977
0.338364
0.111133
0.423161
0.11221
0.310001
0.137292
0.337623
0.158188
0.413872
0.102589
0.354057
0.117674
0.412439
0.10015
0.298251
0.191372
0.273517
0.237837
0.35346
0.199533
0.410764
0.0971701
0.309641
0.192899
0.302489
0.0947368
0.252607
0.238631
0.269396
0.147964
0.261929
0.150984
0.391643
0.122132
0.266591
0.221052
0.287405
0.211207
0.278082
0.229465
0.335304
0.212006
0.285046
0.206858
0.309535
0.131235
0.304269
0.221095
0.304677
0.208058
0.292746
0.21392
0.316846
0.216952
0.358259
0.185138
0.356291
0.129021
0.254095
0.246802
0.277087
0.151072
0.30502
0.159025
0.268362
0.150459
0.370434
0.143975
0.351587
0.130297
0.324789
0.147525
0.318595
0.207226
0.345803
0.133311
0.286187
0.17725
0.282351
0.20152
0.333128
0.133007
0.28614
0.21143
0.23401
0.226712
0.239927
0.229133
0.257008
0.238312
0.361539
0.131215
0.283212
0.160635
0.346475
0.173144
0.337032
0.176232
0.330786
0.236983
0.278045
0.232966
0.299774
0.291144
0.289029
0.237148
0.295307
0.255842
0.302727
0.25978
0.283741
0.23546
0.281615
0.171294
0.275749
0.251675
0.338782
0.213134
0.332425
0.172947
0.300198
0.279696
0.269653
0.252817
0.295452
0.27922
0.258189
0.236649
0.263269
0.245748
0.229523
0.218711
0.254943
0.238613
0.321583
0.218503
0.31538
0.224938
0.307786
0.260982
0.283662
0.269684
0.322066
0.242933
0.281106
0.255323
0.267166
0.25561
0.273012
0.229989
0.240879
0.235892
0.330349
0.236143
0.323
0.273819
0.26179
0.244977
0.287201
0.214493
0.279641
0.228939
0.27466
0.254967
0.286707
0.277236
0.283912
0.259188
0.26626
0.239197
