# vtk DataFile Version 3.0
Tree
ASCII
DATASET POLYDATA
POINTS 400 float
-0.004 0.02 0.0265
0.0065 0.01 0.026302
0.00503 0.0112753 0.0243485
0.00725 0.009063 0.02275
0.00681202 0.0091965 0.0232166
0.008403 0.00575 0.023
0.00293042 0.0139369 0.023604
0.004546 0.01325 0.0215
0.00820372 0.00657716 0.022352
0.009055 0.00575 0.0205
0.00861637 0.00578685 0.0216195
0.009023 0.003 0.02175
0.00744737 0.00825222 0.0221837
0.007871 0.009 0.018
0.000823948 0.0157724 0.0239513
0.00125 0.015355 0.0205
0.00418035 0.0132255 0.0214731
0.00505 0.01175 0.01725
0.0090424 0.00375179 0.0210082
0.009557 0.0025 0.01925
0.00752545 0.00906441 0.0183741
0.007 0.009871 0.01575
0.000526147 0.0156358 0.0209083
-0.00097 0.016 0.019
0.00384771 0.0126421 0.0182385
0.00175 0.01325 0.015954
0.00902882 0.00322554 0.0215275
0.007555 -0.0025 0.0255
0.00955754 0.00245043 0.0192534
0.01 0.00125 0.017755
0.00940791 0.00340196 0.0194475
0.010071 0.00525 0.01525
0.00329105 0.0125169 0.0162507
0.004257 0.0115 0.01375
-0.0019607 0.0177972 0.0246254
-0.00425 0.01725 0.020938
-0.00064024 0.0157019 0.0191302
-0.0015 0.014573 0.01625
0.00744473 0.00932675 0.0163534
0.008863 0.008 0.0135
-0.00414742 0.0173705 0.0226953
-0.0065 0.017055 0.023
0.00842117 -0.000349785 0.022301
0.008543 -0.003 0.01975
0.0100828 0.00345407 0.0164673
0.010557 0.00225 0.01525
0.0031163 0.0121167 0.0144703
0.001563 0.01225 0.01275
0.00767677 -0.00265193 0.0240728
0.007 -0.0055 0.024059
-0.0045641 0.017195 0.0214217
-0.00675 0.016556 0.02
-0.00535519 0.0167691 0.0203012
-0.00475 0.01575 0.016972
-0.00150366 0.0145631 0.0161713
-0.00225 0.01357 0.0135
0.00821097 0.00861242 0.0135548
0.00775 0.00905 0.01125
-0.0063198 0.0168243 0.0230577
-0.00975 0.014799 0.024
-0.00887635 0.0148514 0.0231439
-0.00957 0.01325 0.02175
0.00851481 -0.00275644 0.0196498
0.00856 -0.00425 0.01775
0.00985116 0.00125015 0.0178937
0.010043 -0.00175 0.015
0.0104616 0.00281142 0.015256
0.011061 0.00325 0.01225
0.00838976 0.00843483 0.0125048
0.010377 0.0065 0.0105
0.00762391 0.00910769 0.0114862
0.00525 0.011 0.0098
-0.00949242 0.0133905 0.0224014
-0.01075 0.01025 0.022918
0.00838494 -0.00366378 0.0192909
0.0075 -0.006357 0.02075
-0.00657682 0.0163248 0.0199304
-0.009 0.014372 0.01875
-0.00780458 0.0150479 0.0183577
-0.0075 0.014554 0.016
0.0108042 0.00223457 0.0135941
0.011 0.00025 0.012756
0.00162242 0.0122942 0.0126705
0 0.01256 0.0105
0.00161876 0.0122882 0.0111918
0.003 0.012045 0.00925
0.00744778 -0.00624067 0.0208898
0.006555 -0.00825 0.0225
-0.0105155 0.0106429 0.0225184
-0.0115 0.007 0.02106
-0.0101902 0.0116634 0.0220199
-0.01075 0.011063 0.01925
0.00848717 -0.00436551 0.0178763
0.00855 -0.0055 0.016
-0.00292117 0.014025 0.0143548
-0.0055 0.01406 0.0135
-0.00370216 0.0138906 0.0132103
-0.0035 0.013515 0.011
0.00951764 0.00760915 0.0106516
0.009579 0.00825 0.00875
0.00696957 0.0100331 0.00992792
0.008 0.01025 0.007848
-0.0114037 0.0071743 0.0216119
-0.012 0.0045 0.021781
-0.011187 0.00826143 0.021491
-0.011569 0.00825 0.019
-0.00862597 0.0144526 0.0183013
-0.01 0.012872 0.01675
-0.00775724 0.01448 0.0163566
-0.00875 0.013073 0.014
0.0108186 0.000435834 0.0127714
0.010082 -0.00225 0.01125
0.0108728 0.00135421 0.0126322
0.01125 0.001471 0.00925
0.0018175 0.0124097 0.00961485
0.00075 0.013 0.007779
0.00690127 0.0105832 0.00844253
0.005548 0.01175 0.007
-0.0119269 0.00445695 0.0216617
-0.01225 0.002054 0.0215
0.00708174 -0.00723949 0.021095
0.006555 -0.0095 0.01925
0.00823087 -0.00569776 0.0170305
0.0075 -0.007827 0.017
-0.00986019 0.0129236 0.0167564
-0.011071 0.01125 0.015
0.00847577 -0.00556082 0.0159881
0.009 -0.005327 0.01275
-0.00497193 0.013849 0.0130254
-0.00725 0.013073 0.011
0.000157065 0.0125562 0.0104068
-0.002 0.013057 0.0085
0.0101297 0.00669693 0.0101389
0.01125 0.0045 0.007455
0.0106118 0.00614877 0.00819115
0.010571 0.00725 0.00625
0.00656926 -0.00830548 0.0222808
0.005039 -0.01175 0.02525
-0.0122621 0.00247559 0.0210488
-0.01257 0.0015 0.01975
-0.011859 0.00542189 0.0211316
-0.01275 0.004556 0.018
-0.0117774 0.00804366 0.0190632
-0.01275 0.0075 0.016379
0.00832837 -0.00615155 0.0146543
0.0075 -0.007871 0.014
-0.00879174 0.0131304 0.0139356
-0.00975 0.012072 0.01175
-0.00603102 0.0134568 0.0111581
-0.0055 0.013557 0.00925
0.0111043 0.00152109 0.00936172
0.011053 0.00175 0.00675
0.00152403 0.0127261 0.00828436
0.003 0.012857 0.00575
0.0103796 0.00745761 0.00652117
0.009841 0.00925 0.005
0.00549622 -0.0109611 0.0231289
0.005071 -0.01225 0.02225
0.00640142 -0.00951748 0.0196228
0.005555 -0.0115 0.019
0.00615588 -0.0101421 0.0186689
0.00625 -0.010049 0.01675
-0.0124575 0.00812048 0.0165671
-0.012539 0.00925 0.01475
-0.0100034 0.0119845 0.0126594
-0.01175 0.01055 0.0125
0.0100258 -0.00224912 0.0112651
0.00925 -0.004549 0.01
0.0103121 -0.00141931 0.0112497
0.010542 -0.0015 0.00825
-0.0019723 0.0130768 0.00839763
-0.00375 0.013557 0.0065
0.00156961 0.0129917 0.00662374
0 0.013525 0.00525
0.00658145 0.0110999 0.00738569
0.008 0.011357 0.0045
0.00691606 0.0116105 0.00528342
0.00575 0.012556 0.004
-0.0125535 0.0016206 0.0208898
-0.01375 -0.00175 0.022418
-0.0130357 7.78867e-05 0.0208361
-0.01325 -0.001 0.019388
-0.0127044 0.00143721 0.0197989
-0.013571 0.00075 0.01725
-0.0128162 0.00439813 0.0180692
-0.01375 0.00325 0.015563
0.0074935 -0.00773981 0.0141767
0.005856 -0.01025 0.014
0.00772907 -0.00727741 0.0139659
0.007566 -0.0075 0.01175
0.0078097 -0.00714877 0.0118725
0.00825 -0.0065 0.009655
-0.00619082 0.0134338 0.0100832
-0.0085 0.013042 0.00825
0.0108446 0.00103303 0.00737575
0.01025 -0.000549 0.006
0.0108944 0.0016517 0.00670407
0.01056 0.00325 0.0045
0.0102511 0.00773749 0.00571395
0.0105 0.006 0.003689
0.00253436 0.0129942 0.00570987
0.00325 0.0135 0.003279
0.00499295 -0.0118589 0.0245076
0.003567 -0.0145 0.02525
0.00507087 -0.0121539 0.0222773
0.00425 -0.014049 0.02075
0.00556954 -0.0113434 0.018758
0.0045 -0.013 0.01791
0.00604959 -0.0103257 0.0170931
0.005 -0.011846 0.0155
-0.0127524 0.00765608 0.0162014
-0.014 0.006 0.014318
-0.0133792 0.00722243 0.0146323
-0.013565 0.008 0.01275
0.00753457 -0.00749545 0.0123156
0.006 -0.009377 0.011
-0.0106495 0.0114944 0.0121803
-0.01125 0.01125 0.009545
0.0093662 -0.00407095 0.00960364
0.009 -0.004813 0.0075
-0.00694633 0.0133429 0.00835326
-0.00625 0.013557 0.006
-0.000127725 0.0133633 0.0054096
-0.00225 0.013557 0.00425
0.002391 0.0133541 0.00397876
0.001 0.013557 0.003
0.0101563 0.007046 0.00393406
0.009557 0.00775 0.00225
0.00957909 0.00787492 0.0026347
0.008559 0.01 0.00175
-0.0135921 -0.00174647 0.0219457
-0.014 -0.00525 0.022095
-0.0137342 -0.00314831 0.0213144
-0.01375 -0.00375 0.019563
-0.0133321 -0.000918971 0.0194979
-0.01425 -0.0025 0.01738
-0.0136368 0.00070493 0.0173017
-0.014549 0 0.01525
-0.0137888 0.00331555 0.0155869
-0.014689 0.0025 0.0135
0.0058822 -0.00992755 0.0134824
0.004546 -0.01125 0.012
-0.0114998 0.0108233 0.0108665
-0.013 0.009377 0.0105
0.00670106 -0.00845935 0.0108481
0.00675 -0.00825 0.008954
-0.0112124 0.0112475 0.00958051
-0.0105 0.012055 0.00725
-0.00722853 0.0133252 0.0068713
-0.00875 0.013035 0.00575
0.0102355 -0.000499992 0.00619183
0.009 -0.00325 0.004717
-0.00641749 0.0134759 0.00595496
-0.005 0.013557 0.0035
0.00974902 -0.000949996 0.00487416
0.009557 0.00025 0.00275
-0.00129087 0.0135491 0.00399919
-0.00125 0.01375 0.002029
0.00643313 0.0121066 0.00420187
0.007048 0.01225 0.0015
0.0063478 0.0124841 0.0022372
0.00525 0.01325 0.001045
0.00375047 -0.0143777 0.0245818
0.003 -0.016327 0.0235
0.00410821 -0.0140704 0.0209066
0.00304 -0.01575 0.02
0.00337063 -0.0149664 0.0196601
0.003 -0.014871 0.01775
0.00484587 -0.0118414 0.0160798
0.00325 -0.013567 0.01575
0.00402835 -0.0125858 0.0153219
0.00375 -0.012528 0.01375
-0.014418 0.00332098 0.0138539
-0.01475 0.0045 0.012379
-0.0136537 0.00758006 0.0130132
-0.014557 0.0065 0.011
0.00616146 -0.00912157 0.0106897
0.005 -0.010371 0.00925
-0.0123999 0.0100938 0.00994661
-0.013 0.009871 0.008
0.00684179 -0.00810996 0.00912185
0.0075 -0.006846 0.0065
0.00891124 -0.003258 0.00483396
0.008041 -0.00525 0.005
0.00927121 -0.00199124 0.00433653
0.009 -0.002031 0.003
0.00962265 0.000496001 0.00314973
0.009572 0.0025 0.00175
0.00987009 0.00704968 0.00306852
0.009555 0.005 0.001
0.00288063 0.0135133 0.00319084
0.00325 0.014043 0.0005
0.00908504 0.00841996 0.00168465
0.008689 0.008 0
0.00864002 0.00939058 0.0014069
0.007522 0.0105 -0.0005
-0.01394 -0.00510254 0.0219059
-0.014084 -0.00825 0.02225
-0.0140614 -0.00624922 0.0214235
-0.01425 -0.0065 0.019888
-0.0138621 -0.00386754 0.019782
-0.014581 -0.00575 0.01775
-0.0144828 -0.00472761 0.0179103
-0.015052 -0.00425 0.016
0.00324242 -0.0133632 0.0154252
0.00125 -0.014564 0.0145
-0.0144534 1.55777e-05 0.0152942
-0.01525 -0.00075 0.013063
0.00361515 -0.0126143 0.0138944
0.00225 -0.013033 0.01175
-0.0147122 0.00374802 0.0127892
-0.0155 0.00275 0.010779
-0.012869 0.00965957 0.00913277
-0.01425 0.007549 0.009
0.00669406 -0.0080701 0.00796849
0.00575 -0.009051 0.00725
-0.011148 0.0115076 0.00764576
-0.012 0.011023 0.006
0.0070321 -0.00724723 0.00640992
0.00675 -0.00688 0.0045
-0.00645039 0.0135099 0.00460838
-0.00775 0.013528 0.00325
-0.00574413 0.0135419 0.00336468
-0.006 0.013557 0.00175
-0.00154104 0.0136708 0.00238189
-0.00325 0.013572 0.00075
0.0024318 0.0138771 0.00122107
0.00075 0.014056 -0
0.00947522 0.00507192 0.00106496
0.009 0.0035 -0.000541
0.00587605 0.0127807 0.00127135
0.00635 0.01225 -0.001
0.00305266 -0.0158637 0.0241586
0.0015 -0.017891 0.0255
0.00225172 -0.0169484 0.0238761
0.001523 -0.018 0.022
0.00296657 -0.0156322 0.0198188
0.0015 -0.017315 0.01975
0.00201663 -0.0164137 0.0191926
0.00125 -0.0165 0.017661
0.00144818 -0.0146826 0.015072
0.00025 -0.016017 0.01575
-0.0149951 -0.00106502 0.014057
-0.01525 -0.00275 0.014063
0.00122693 -0.0146054 0.0145575
0.00025 -0.01436 0.0125
-0.015224 -0.000800054 0.0130426
-0.015556 -0.0005 0.011
0.00506859 -0.0102687 0.00970871
0.00325 -0.01205 0.00975
-0.0151239 0.00362937 0.0109241
-0.015057 0.00475 0.009
0.00443624 -0.010831 0.00910018
0.004369 -0.01075 0.0075
-0.0136976 0.00853211 0.00835311
-0.01425 0.008045 0.0065
0.00588184 -0.00884902 0.00716399
0.004871 -0.0095 0.00525
-0.00864513 0.0129313 0.00577852
-0.010549 0.01225 0.00425
0.00823762 -0.0043832 0.00436014
0.0075 -0.005 0.002952
0.00893323 -0.00216152 0.00315086
0.008 -0.00304 0.0015
0.00851329 -0.00204741 0.00191703
0.0085 -0.00075 0.000631
0.00850957 -0.000675171 0.000725848
0.008519 0.001 -0.0005
-0.00207641 0.0137471 0.000912757
-0.0015 0.014056 -0.001
0.00564242 0.0128271 -0.000231462
0.0045 0.013553 -0.0015
0.00905009 0.00461877 -0.000258694
0.0085 0.00525 -0.001827
0.00864081 0.00814839 0.000139857
0.007581 0.00825 -0.00225
-0.0142614 -0.00814969 0.0221092
-0.01475 -0.01075 0.022928
-0.0145155 -0.00933413 0.0218552
-0.01475 -0.010151 0.0205
-0.0147294 -0.00976931 0.0206209
-0.015055 -0.009 0.01875
-0.0146151 -0.00567216 0.0177011
-0.01507 -0.00775 0.017
-0.0150241 -0.00663887 0.0167904
-0.015556 -0.00675 0.01525
0.000220771 -0.0148474 0.0137301
-0.00125 -0.01575 0.013954
-0.015224 -0.00254005 0.0138426
-0.015556 -0.0045 0.0125
-0.0154232 -0.00125002 0.011817
-0.015556 -0.00275 0.011
0.00226685 -0.0130499 0.0118762
0.00075 -0.013572 0.00975
-0.0155095 -0.000622508 0.010971
-0.015556 0.0005 0.00875
0.00358509 -0.0115979 0.00919058
0.002 -0.012565 0.00775
-0.0151021 0.00435125 0.00920452
-0.01525 0.004063 0.00675
LINES 399 1197
2 2 1
2 6 2
2 4 3
2 2 4
2 8 5
2 14 6
2 16 7
2 12 8
2 10 9
2 8 10
2 26 11
2 4 12
2 20 13
2 34 14
2 22 15
2 6 16
2 24 17
2 10 18
2 28 19
2 12 20
2 38 21
2 14 22
2 36 23
2 16 24
2 32 25
2 18 26
2 48 27
2 30 28
2 64 29
2 18 30
2 44 31
2 24 32
2 46 33
2 0 34
2 50 35
2 22 36
2 54 37
2 20 38
2 56 39
2 34 40
2 58 41
2 26 42
2 62 43
2 30 44
2 66 45
2 32 46
2 82 47
2 42 48
2 48 49
2 40 50
2 76 51
2 50 52
2 52 53
2 36 54
2 94 55
2 38 56
2 70 57
2 40 58
2 60 59
2 58 60
2 72 61
2 42 62
2 92 63
2 28 64
2 64 65
2 44 66
2 80 67
2 56 68
2 132 69
2 68 70
2 100 71
2 60 72
2 88 73
2 62 74
2 86 75
2 52 76
2 106 77
2 76 78
2 108 79
2 66 80
2 110 81
2 46 82
2 130 83
2 82 84
2 114 85
2 74 86
2 136 87
2 90 88
2 102 89
2 72 90
2 90 91
2 74 92
2 126 93
2 54 94
2 128 95
2 94 96
2 96 97
2 68 98
2 98 99
2 70 100
2 116 101
2 104 102
2 118 103
2 88 104
2 142 105
2 78 106
2 124 107
2 78 108
2 146 109
2 112 110
2 166 111
2 80 112
2 150 113
2 84 114
2 152 115
2 100 116
2 174 117
2 140 118
2 138 119
2 86 120
2 158 121
2 92 122
2 122 123
2 106 124
2 124 125
2 122 126
2 144 127
2 96 128
2 148 129
2 84 130
2 170 131
2 98 132
2 134 133
2 132 134
2 154 135
2 120 136
2 202 137
2 118 138
2 182 139
2 102 140
2 184 141
2 104 142
2 210 143
2 126 144
2 186 145
2 108 146
2 164 147
2 128 148
2 192 149
2 112 150
2 196 151
2 114 152
2 200 153
2 134 154
2 198 155
2 136 156
2 204 157
2 120 158
2 206 159
2 158 160
2 208 161
2 142 162
2 162 163
2 146 164
2 216 165
2 168 166
2 218 167
2 110 168
2 168 169
2 130 170
2 170 171
2 152 172
2 222 173
2 116 174
2 176 175
2 174 176
2 258 177
2 138 178
2 230 179
2 178 180
2 234 181
2 178 182
2 236 183
2 140 184
2 238 185
2 188 186
2 240 187
2 144 188
2 190 189
2 214 190
2 190 191
2 148 192
2 220 193
2 150 194
2 250 195
2 194 196
2 196 197
2 154 198
2 226 199
2 172 200
2 290 201
2 156 202
2 262 203
2 156 204
2 264 205
2 160 206
2 206 207
2 160 208
2 268 209
2 162 210
2 212 211
2 210 212
2 274 213
2 188 214
2 276 215
2 164 216
2 246 217
2 166 218
2 218 219
2 192 220
2 252 221
2 172 222
2 256 223
2 200 224
2 224 225
2 198 226
2 228 227
2 288 228
2 294 229
2 180 230
2 296 231
2 230 232
2 300 233
2 180 234
2 234 235
2 182 236
2 306 237
2 184 238
2 272 239
2 186 240
2 240 241
2 216 242
2 278 243
2 214 244
2 280 245
2 242 246
2 316 247
2 220 248
2 358 249
2 194 250
2 282 251
2 248 252
2 322 253
2 250 254
2 286 255
2 222 256
2 324 257
2 176 258
2 260 259
2 258 260
2 330 261
2 202 262
2 332 263
2 204 264
2 336 265
2 264 266
2 266 267
2 208 268
2 304 269
2 268 270
2 308 271
2 238 272
2 310 273
2 212 274
2 274 275
2 244 276
2 348 277
2 242 278
2 312 279
2 244 280
2 318 281
2 284 282
2 360 283
2 254 284
2 362 285
2 254 286
2 286 287
2 226 288
2 328 289
2 224 290
2 326 291
2 228 292
2 374 293
2 292 294
2 294 295
2 232 296
2 376 297
2 296 298
2 298 299
2 232 300
2 382 301
2 300 302
2 302 303
2 270 304
2 344 305
2 236 306
2 346 307
2 270 308
2 392 309
2 272 310
2 350 311
2 278 312
2 354 313
2 280 314
2 356 315
2 246 316
2 316 317
2 314 318
2 318 319
2 252 320
2 320 321
2 320 322
2 322 323
2 256 324
2 368 325
2 290 326
2 326 327
2 288 328
2 372 329
2 260 330
2 370 331
2 262 332
2 334 333
2 332 334
2 334 335
2 266 336
2 338 337
2 336 338
2 338 339
2 304 340
2 340 341
2 306 342
2 388 343
2 340 344
2 386 345
2 342 346
2 394 347
2 276 348
2 396 349
2 310 350
2 398 351
2 348 352
2 352 353
2 312 354
2 354 355
2 314 356
2 356 357
2 248 358
2 358 359
2 282 360
2 360 361
2 284 362
2 364 363
2 362 364
2 366 365
2 364 366
2 366 367
2 324 368
2 368 369
2 330 370
2 370 371
2 328 372
2 372 373
2 292 374
2 374 375
2 298 376
2 378 377
2 376 378
2 380 379
2 378 380
2 380 381
2 302 382
2 384 383
2 382 384
2 384 385
2 344 386
2 386 387
2 342 388
2 388 389
2 346 390
2 390 391
2 308 392
2 392 393
2 390 394
2 394 395
2 352 396
2 396 397
2 350 398
2 398 399
CELL_DATA 399
SCALARS radius float
LOOKUP_TABLE default
0.138007
0.887767
0.0979307
0.886654
0.113169
0.93341
0.0843828
0.802901
0.117485
0.802151
0.0860197
0.886255
0.0969633
0.96288
0.104703
0.484259
0.130966
0.80131
0.0590803
0.563068
0.115111
0.42996
0.092199
0.483404
0.133841
0.709961
0.156285
0.214753
0.0969665
0.539087
0.147089
0.480178
0.132626
1.07345
0.0928229
0.42788
0.0627662
0.562108
0.118671
0.700817
0.0784576
0.70954
0.0880361
0.527479
0.107548
0.476687
0.0719845
0.217682
0.186603
0.431982
0.0821897
0.430549
0.149177
0.426448
0.128985
0.560494
0.0925169
0.641176
0.114798
0.640784
0.10037
0.702643
0.0836534
0.213252
0.206348
0.523639
0.145534
0.558716
0.110022
0.40908
0.158791
0.639553
0.100936
0.702182
0.0853509
0.424495
0.109064
0.423465
0.0991655
0.522122
0.0966337
0.47324
0.0938124
0.472684
0.142552
0.594275
0.093804
0.636108
0.104385
0.638728
0.147269
0.514688
0.0746572
0.425995
0.122031
0.422016
0.156279
0.473191
0.15362
0.407496
0.149181
0.60765
0.0767431
0.63526
0.0947039
0.219521
0.0981942
0.40281
0.0725261
0.312221
0.0792978
0.518326
0.0920435
0.447376
0.137175
0.399295
0.154451
0.560519
0.113611
0.593687
0.111247
0.51395
0.160573
0.210154
0.20275
0.508671
0.167657
0.414748
0.14843
0.252358
0.10826
0.467732
0.162525
0.465694
0.115289
0.46713
0.144079
0.56004
0.0842857
0.606622
0.087751
0.317461
0.103425
0.508135
0.10156
0.400797
0.136562
0.411196
0.147066
0.47742
0.108451
0.442499
0.128522
0.459
0.170936
0.465865
0.0867968
0.475221
0.124411
0.47318
0.124884
0.314626
0.172657
0.400003
0.157467
0.278587
0.180338
0.309105
0.199266
0.247961
0.240882
0.43806
0.113354
0.39223
0.16957
0.384079
0.159124
0.558477
0.118838
0.479955
0.101561
0.399219
0.0809667
0.361203
0.0787073
0.263436
0.165716
0.501976
0.131902
0.217567
0.200031
0.404645
0.172245
0.476277
0.103686
0.219959
0.210794
0.456562
0.163162
0.342862
0.141673
0.365202
0.160628
0.374203
0.11784
0.219653
0.205451
0.456845
0.140795
0.296241
0.17979
0.291978
0.164542
0.476523
0.134026
0.394626
0.0807082
0.276429
0.248027
0.398063
0.116573
0.352385
0.174064
0.336734
0.193047
0.448431
0.137166
0.372161
0.188629
0.464972
0.112382
0.46237
0.114966
0.21569
0.207906
0.397963
0.0907326
0.359469
0.157449
0.258306
0.233211
0.386085
0.167945
0.460898
0.120424
0.281739
0.200459
0.387009
0.124589
0.460095
0.120231
0.341796
0.212887
0.458333
0.166729
0.348431
0.161579
0.372729
0.1871
0.3628
0.190666
0.357569
0.184017
0.37264
0.142847
0.36867
0.227109
0.453713
0.139385
0.449148
0.126779
0.358206
0.163623
0.267213
0.244549
0.361266
0.15272
0.327687
0.182782
0.370254
0.198008
0.31356
0.22991
0.423176
0.126211
0.273686
0.251275
0.441112
0.118659
0.314097
0.220855
0.365843
0.148508
0.288184
0.258243
0.382383
0.133532
0.379119
0.188284
0.35017
0.110158
0.345989
0.214934
0.387159
0.112166
0.396842
0.0916089
0.319374
0.141773
0.347765
0.190036
0.312268
0.217122
0.365958
0.155173
0.279514
0.239761
0.296784
0.263894
0.337215
0.22572
0.299428
0.25812
0.333303
0.236482
0.30418
0.258988
0.324867
0.239237
0.345391
0.242878
0.34642
0.256641
0.328167
0.264182
0.337358
0.248056
0.328595
0.272418
0.381041
0.238931
0.395255
0.151423
0.346729
0.262447
0.347583
0.141993
0.35501
0.209959
0.335246
0.188648
0.345327
0.222591
0.289818
0.24163
0.28385
0.267465
0.262241
0.252511
0.307553
0.256817
0.355563
0.214061
0.350182
0.152082
0.321184
0.30939
0.320132
0.269544
0.324823
0.271191
0.319502
0.266478
0.292524
0.279165
0.362961
0.238902
0.356833
0.193356
0.316819
0.290722
0.31578
0.235218
0.311247
0.257822
0.342771
0.281033
0.270335
0.253469
0.345449
0.23378
0.312571
0.30253
0.305268
0.294663
0.311247
0.275438
0.313513
0.288857
