# vtk DataFile Version 3.0
Tree
ASCII
DATASET POLYDATA
POINTS 600 float
-0.004 0.02 0.0265
0.0065 0.01 0.026302
0.00503 0.0112753 0.0243485
0.00725 0.009063 0.02275
0.00681202 0.0091965 0.0232166
0.008403 0.00575 0.023
0.00293042 0.0139369 0.023604
0.004546 0.01325 0.0215
0.00820372 0.00657716 0.022352
0.009055 0.00575 0.0205
0.00861637 0.00578685 0.0216195
0.009023 0.003 0.02175
0.00744737 0.00825222 0.0221837
0.007871 0.009 0.018
0.000823948 0.0157724 0.0239513
0.00125 0.015355 0.0205
0.00418035 0.0132255 0.0214731
0.00505 0.01175 0.01725
0.0090424 0.00375179 0.0210082
0.009557 0.0025 0.01925
0.00752545 0.00906441 0.0183741
0.007 0.009871 0.01575
0.000526147 0.0156358 0.0209083
-0.00097 0.016 0.019
0.00384771 0.0126421 0.0182385
0.00175 0.01325 0.015954
0.00902882 0.00322554 0.0215275
0.007555 -0.0025 0.0255
0.00955754 0.00245043 0.0192534
0.01 0.00125 0.017755
0.00940791 0.00340196 0.0194475
0.010071 0.00525 0.01525
0.00329105 0.0125169 0.0162507
0.004257 0.0115 0.01375
-0.0019607 0.0177972 0.0246254
-0.00425 0.01725 0.020938
-0.00064024 0.0157019 0.0191302
-0.0015 0.014573 0.01625
0.00744473 0.00932675 0.0163534
0.008863 0.008 0.0135
-0.00414742 0.0173705 0.0226953
-0.0065 0.017055 0.023
0.00842117 -0.000349785 0.022301
0.008543 -0.003 0.01975
0.0100828 0.00345407 0.0164673
0.010557 0.00225 0.01525
0.0031163 0.0121167 0.0144703
0.001563 0.01225 0.01275
0.00767677 -0.00265193 0.0240728
0.007 -0.0055 0.024059
-0.0045641 0.017195 0.0214217
-0.00675 0.016556 0.02
-0.00535519 0.0167691 0.0203012
-0.00475 0.01575 0.016972
-0.00150366 0.0145631 0.0161713
-0.00225 0.01357 0.0135
0.00821097 0.00861242 0.0135548
0.00775 0.00905 0.01125
-0.0063198 0.0168243 0.0230577
-0.00975 0.014799 0.024
-0.00887635 0.0148514 0.0231439
-0.00957 0.01325 0.02175
0.00851481 -0.00275644 0.0196498
0.00856 -0.00425 0.01775
0.00985116 0.00125015 0.0178937
0.010043 -0.00175 0.015
0.0104616 0.00281142 0.015256
0.011061 0.00325 0.01225
0.00838976 0.00843483 0.0125048
0.010377 0.0065 0.0105
0.00762391 0.00910769 0.0114862
0.00525 0.011 0.0098
-0.00949242 0.0133905 0.0224014
-0.01075 0.01025 0.022918
0.00838494 -0.00366378 0.0192909
0.0075 -0.006357 0.02075
-0.00657682 0.0163248 0.0199304
-0.009 0.014372 0.01875
-0.00780458 0.0150479 0.0183577
-0.0075 0.014554 0.016
0.0108042 0.00223457 0.0135941
0.011 0.00025 0.012756
0.00162242 0.0122942 0.0126705
0 0.01256 0.0105
0.00161876 0.0122882 0.0111918
0.003 0.012045 0.00925
0.00744778 -0.00624067 0.0208898
0.006555 -0.00825 0.0225
-0.0105155 0.0106429 0.0225184
-0.0115 0.007 0.02106
-0.0101902 0.0116634 0.0220199
-0.01075 0.011063 0.01925
0.00848717 -0.00436551 0.0178763
0.00855 -0.0055 0.016
-0.00292117 0.014025 0.0143548
-0.0055 0.01406 0.0135
-0.00370216 0.0138906 0.0132103
-0.0035 0.013515 0.011
0.00951764 0.00760915 0.0106516
0.009579 0.00825 0.00875
0.00696957 0.0100331 0.00992792
0.008 0.01025 0.007848
-0.0114037 0.0071743 0.0216119
-0.012 0.0045 0.021781
-0.011187 0.00826143 0.021491
-0.011569 0.00825 0.019
-0.00862597 0.0144526 0.0183013
-0.01 0.012872 0.01675
-0.00775724 0.01448 0.0163566
-0.00875 0.013073 0.014
0.0108186 0.000435834 0.0127714
0.010082 -0.00225 0.01125
0.0108728 0.00135421 0.0126322
0.01125 0.001471 0.00925
0.0018175 0.0124097 0.00961485
0.00075 0.013 0.007779
0.00690127 0.0105832 0.00844253
0.005548 0.01175 0.007
-0.0119269 0.00445695 0.0216617
-0.01225 0.002054 0.0215
0.00708174 -0.00723949 0.021095
0.006555 -0.0095 0.01925
0.00823087 -0.00569776 0.0170305
0.0075 -0.007827 0.017
-0.00986019 0.0129236 0.0167564
-0.011071 0.01125 0.015
0.00847577 -0.00556082 0.0159881
0.009 -0.005327 0.01275
-0.00497193 0.013849 0.0130254
-0.00725 0.013073 0.011
0.000157065 0.0125562 0.0104068
-0.002 0.013057 0.0085
0.0101297 0.00669693 0.0101389
0.01125 0.0045 0.007455
0.0106118 0.00614877 0.00819115
0.010571 0.00725 0.00625
0.00656926 -0.00830548 0.0222808
0.005039 -0.01175 0.02525
-0.0122621 0.00247559 0.0210488
-0.01257 0.0015 0.01975
-0.011859 0.00542189 0.0211316
-0.01275 0.004556 0.018
-0.0117774 0.00804366 0.0190632
-0.01275 0.0075 0.016379
0.00832837 -0.00615155 0.0146543
0.0075 -0.007871 0.014
-0.00879174 0.0131304 0.0139356
-0.00975 0.012072 0.01175
-0.00603102 0.0134568 0.0111581
-0.0055 0.013557 0.00925
0.0111043 0.00152109 0.00936172
0.011053 0.00175 0.00675
0.00152403 0.0127261 0.00828436
0.003 0.012857 0.00575
0.0103796 0.00745761 0.00652117
0.009841 0.00925 0.005
0.00549622 -0.0109611 0.0231289
0.005071 -0.01225 0.02225
0.00640142 -0.00951748 0.0196228
0.005555 -0.0115 0.019
0.00615588 -0.0101421 0.0186689
0.00625 -0.010049 0.01675
-0.0124575 0.00812048 0.0165671
-0.012539 0.00925 0.01475
-0.0100034 0.0119845 0.0126594
-0.01175 0.01055 0.0125
0.0100258 -0.00224912 0.0112651
0.00925 -0.004549 0.01
0.0103121 -0.00141931 0.0112497
0.010542 -0.0015 0.00825
-0.0019723 0.0130768 0.00839763
-0.00375 0.013557 0.0065
0.00156961 0.0129917 0.00662374
0 0.013525 0.00525
0.00658145 0.0110999 0.00738569
0.008 0.011357 0.0045
0.00691606 0.0116105 0.00528342
0.00575 0.012556 0.004
-0.0125535 0.0016206 0.0208898
-0.01375 -0.00175 0.022418
-0.0130357 7.78867e-05 0.0208361
-0.01325 -0.001 0.019388
-0.0127044 0.00143721 0.0197989
-0.013571 0.00075 0.01725
-0.0128162 0.00439813 0.0180692
-0.01375 0.00325 0.015563
0.0074935 -0.00773981 0.0141767
0.005856 -0.01025 0.014
0.00772907 -0.00727741 0.0139659
0.007566 -0.0075 0.01175
0.0078097 -0.00714877 0.0118725
0.00825 -0.0065 0.009655
-0.00619082 0.0134338 0.0100832
-0.0085 0.013042 0.00825
0.0108446 0.00103303 0.00737575
0.01025 -0.000549 0.006
0.0108944 0.0016517 0.00670407
0.01056 0.00325 0.0045
0.0102511 0.00773749 0.00571395
0.0105 0.006 0.003689
0.00253436 0.0129942 0.00570987
0.00325 0.0135 0.003279
0.00499295 -0.0118589 0.0245076
0.003567 -0.0145 0.02525
0.00507087 -0.0121539 0.0222773
0.00425 -0.014049 0.02075
0.00556954 -0.0113434 0.018758
0.0045 -0.013 0.01791
0.00604959 -0.0103257 0.0170931
0.005 -0.011846 0.0155
-0.0127524 0.00765608 0.0162014
-0.014 0.006 0.014318
-0.0133792 0.00722243 0.0146323
-0.013565 0.008 0.01275
0.00753457 -0.00749545 0.0123156
0.006 -0.009377 0.011
-0.0106495 0.0114944 0.0121803
-0.01125 0.01125 0.009545
0.0093662 -0.00407095 0.00960364
0.009 -0.004813 0.0075
-0.00694633 0.0133429 0.00835326
-0.00625 0.013557 0.006
-0.000127725 0.0133633 0.0054096
-0.00225 0.013557 0.00425
0.002391 0.0133541 0.00397876
0.001 0.013557 0.003
0.0101563 0.007046 0.00393406
0.009557 0.00775 0.00225
0.00957909 0.00787492 0.0026347
0.008559 0.01 0.00175
-0.0135921 -0.00174647 0.0219457
-0.014 -0.00525 0.022095
-0.0137342 -0.00314831 0.0213144
-0.01375 -0.00375 0.019563
-0.0133321 -0.000918971 0.0194979
-0.01425 -0.0025 0.01738
-0.0136368 0.00070493 0.0173017
-0.014549 0 0.01525
-0.0137888 0.00331555 0.0155869
-0.014689 0.0025 0.0135
0.0058822 -0.00992755 0.0134824
0.004546 -0.01125 0.012
-0.0114998 0.0108233 0.0108665
-0.013 0.009377 0.0105
0.00670106 -0.00845935 0.0108481
0.00675 -0.00825 0.008954
-0.0112124 0.0112475 0.00958051
-0.0105 0.012055 0.00725
-0.00722853 0.0133252 0.0068713
-0.00875 0.013035 0.00575
0.0102355 -0.000499992 0.00619183
0.009 -0.00325 0.004717
-0.00641749 0.0134759 0.00595496
-0.005 0.013557 0.0035
0.00974902 -0.000949996 0.00487416
0.009557 0.00025 0.00275
-0.00129087 0.0135491 0.00399919
-0.00125 0.01375 0.002029
0.00643313 0.0121066 0.00420187
0.007048 0.01225 0.0015
0.0063478 0.0124841 0.0022372
0.00525 0.01325 0.001045
0.00375047 -0.0143777 0.0245818
0.003 -0.016327 0.0235
0.00410821 -0.0140704 0.0209066
0.00304 -0.01575 0.02
0.00337063 -0.0149664 0.0196601
0.003 -0.014871 0.01775
0.00484587 -0.0118414 0.0160798
0.00325 -0.013567 0.01575
0.00402835 -0.0125858 0.0153219
0.00375 -0.012528 0.01375
-0.014418 0.00332098 0.0138539
-0.01475 0.0045 0.012379
-0.0136537 0.00758006 0.0130132
-0.014557 0.0065 0.011
0.00616146 -0.00912157 0.0106897
0.005 -0.010371 0.00925
-0.0123999 0.0100938 0.00994661
-0.013 0.009871 0.008
0.00684179 -0.00810996 0.00912185
0.0075 -0.006846 0.0065
0.00891124 -0.003258 0.00483396
0.008041 -0.00525 0.005
0.00927121 -0.00199124 0.00433653
0.009 -0.002031 0.003
0.00962265 0.000496001 0.00314973
0.009572 0.0025 0.00175
0.00987009 0.00704968 0.00306852
0.009555 0.005 0.001
0.00288063 0.0135133 0.00319084
0.00325 0.014043 0.0005
0.00908504 0.00841996 0.00168465
0.008689 0.008 0
0.00864002 0.00939058 0.0014069
0.007522 0.0105 -0.0005
-0.01394 -0.00510254 0.0219059
-0.014084 -0.00825 0.02225
-0.0140614 -0.00624922 0.0214235
-0.01425 -0.0065 0.019888
-0.0138621 -0.00386754 0.019782
-0.014581 -0.00575 0.01775
-0.0144828 -0.00472761 0.0179103
-0.015052 -0.00425 0.016
0.00324242 -0.0133632 0.0154252
0.00125 -0.014564 0.0145
-0.0144534 1.55777e-05 0.0152942
-0.01525 -0.00075 0.013063
0.00361515 -0.0126143 0.0138944
0.00225 -0.013033 0.01175
-0.0147122 0.00374802 0.0127892
-0.0155 0.00275 0.010779
-0.012869 0.00965957 0.00913277
-0.01425 0.007549 0.009
0.00669406 -0.0080701 0.00796849
0.00575 -0.009051 0.00725
-0.011148 0.0115076 0.00764576
-0.012 0.011023 0.006
0.0070321 -0.00724723 0.00640992
0.00675 -0.00688 0.0045
-0.00645039 0.0135099 0.00460838
-0.00775 0.013528 0.00325
-0.00574413 0.0135419 0.00336468
-0.006 0.013557 0.00175
-0.00154104 0.0136708 0.00238189
-0.00325 0.013572 0.00075
0.0024318 0.0138771 0.00122107
0.00075 0.014056 -0
0.00947522 0.00507192 0.00106496
0.009 0.0035 -0.000541
0.00587605 0.0127807 0.00127135
0.00635 0.01225 -0.001
0.00305266 -0.0158637 0.0241586
0.0015 -0.017891 0.0255
0.00225172 -0.0169484 0.0238761
0.001523 -0.018 0.022
0.00296657 -0.0156322 0.0198188
0.0015 -0.017315 0.01975
0.00201663 -0.0164137 0.0191926
0.00125 -0.0165 0.017661
0.00144818 -0.0146826 0.015072
0.00025 -0.016017 0.01575
-0.0149951 -0.00106502 0.014057
-0.01525 -0.00275 0.014063
0.00122693 -0.0146054 0.0145575
0.00025 -0.01436 0.0125
-0.015224 -0.000800054 0.0130426
-0.015556 -0.0005 0.011
0.00506859 -0.0102687 0.00970871
0.00325 -0.01205 0.00975
-0.0151239 0.00362937 0.0109241
-0.015057 0.00475 0.009
0.00443624 -0.010831 0.00910018
0.004369 -0.01075 0.0075
-0.0136976 0.00853211 0.00835311
-0.01425 0.008045 0.0065
0.00588184 -0.00884902 0.00716399
0.004871 -0.0095 0.00525
-0.00864513 0.0129313 0.00577852
-0.010549 0.01225 0.00425
0.00823762 -0.0043832 0.00436014
0.0075 -0.005 0.002952
0.00893323 -0.00216152 0.00315086
0.008 -0.00304 0.0015
0.00851329 -0.00204741 0.00191703
0.0085 -0.00075 0.000631
0.00850957 -0.000675171 0.000725848
0.008519 0.001 -0.0005
-0.00207641 0.0137471 0.000912757
-0.0015 0.014056 -0.001
0.00564242 0.0128271 -0.000231462
0.0045 0.013553 -0.0015
0.00905009 0.00461877 -0.000258694
0.0085 0.00525 -0.001827
0.00864081 0.00814839 0.000139857
0.007581 0.00825 -0.00225
-0.0142614 -0.00814969 0.0221092
-0.01475 -0.01075 0.022928
-0.0145155 -0.00933413 0.0218552
-0.01475 -0.010151 0.0205
-0.0147294 -0.00976931 0.0206209
-0.015055 -0.009 0.01875
-0.0146151 -0.00567216 0.0177011
-0.01507 -0.00775 0.017
-0.0150241 -0.00663887 0.0167904
-0.015556 -0.00675 0.01525
0.000220771 -0.0148474 0.0137301
-0.00125 -0.01575 0.013954
-0.015224 -0.00254005 0.0138426
-0.015556 -0.0045 0.0125
-0.0154232 -0.00125002 0.011817
-0.015556 -0.00275 0.011
0.00226685 -0.0130499 0.0118762
0.00075 -0.013572 0.00975
-0.0155095 -0.000622508 0.010971
-0.015556 0.0005 0.00875
0.00358509 -0.0115979 0.00919058
0.002 -0.012565 0.00775
-0.0151021 0.00435125 0.00920452
-0.01525 0.004063 0.00675
0.00472972 -0.00973128 0.00577936
0.0035 -0.010884 0.0055
-0.011945 0.0109756 0.00624066
-0.01325 0.00975 0.004545
0.00484071 -0.00946146 0.00531116
0.00525 -0.00825 0.003456
-0.00971604 0.0125582 0.00417913
-0.00975 0.012572 0.00225
0.00749728 -0.00497346 0.00309392
0.006058 -0.006 0.00125
-0.00621091 0.0134834 0.00201096
-0.008 0.01306 0.0005
-0.00652444 0.0133794 0.00125147
-0.005 0.013557 -0.0005
0.00824643 -9.00684e-05 -0.000289661
0.007559 -0.0005 -0.0015
0.00184272 0.0140388 -5.9253e-05
0.00225 0.01425 -0.001956
0.00886852 0.00387607 -0.000693869
0.007907 0.00275 -0.0025
0.00791151 0.00773561 -0.00188643
0.007853 0.0065 -0.003
0.00760648 0.00823266 -0.00220458
0.006559 0.01 -0.00325
0.00145796 -0.0179388 0.0250616
-0.00025 -0.02005 0.0255
0.00132975 -0.0181535 0.0227821
0 -0.01975 0.022649
0.0006019 -0.0188597 0.0221005
0.00025 -0.018851 0.0205
0.000135013 -0.0188588 0.0207221
-0.00125 -0.01889 0.019
0.000353418 -0.01601 0.0159531
-0.00075 -0.017517 0.01725
-0.000956906 -0.0170524 0.016555
-0.00275 -0.01758 0.01625
-0.00224621 -0.0171606 0.0158576
-0.003 -0.016685 0.0145
-0.0154763 -0.00465961 0.0129622
-0.015556 -0.00675 0.013
-0.00094523 -0.0154051 0.0136021
-0.00275 -0.015543 0.012
-0.00160809 -0.015216 0.0122208
-0.00125 -0.014572 0.0105
-0.0155029 -0.00201001 0.0107668
-0.015556 -0.00225 0.009
-0.0152765 0.00360066 0.00794181
-0.015556 0.002 0.0075
0.00239302 -0.0122447 0.00760574
0.002045 -0.01225 0.006
-0.01523 0.00417435 0.00686179
-0.015056 0.00575 0.00525
-0.0141432 0.00813955 0.00646299
-0.0145 0.007826 0.00425
0.00456354 -0.0093215 0.0043028
0.0035 -0.01 0.0033
-0.0100477 0.0123968 0.00326885
-0.012 0.011371 0.0025
0.00499466 -0.0084693 0.00340408
0.00475 -0.00775 0.001452
0.00664233 -0.00526523 0.00149005
0.0065 -0.004549 -0
0.00808071 -0.00257259 0.00135746
0.007 -0.00275 -0.000799
-0.00224445 0.0139557 -0.000597918
-0.0035 0.014051 -0.00175
0.00779512 -0.000146524 -0.00125138
0.007527 0.001 -0.00275
0.00179245 0.0142189 -0.0014383
0 0.014556 -0.003
0.00522264 0.0129447 -0.00113305
0.0055 0.011852 -0.0035
0.00491725 0.0127505 -0.00262322
0.003815 0.0135 -0.00375
0.00718611 0.00852168 -0.0030282
0.007003 0.00775 -0.00425
-3.63686e-05 -0.0197393 0.0249748
-0.000951 -0.02075 0.024
-0.0146613 -0.0107527 0.0226134
-0.014569 -0.0135 0.02275
7.59616e-05 -0.0190539 0.0212785
-0.001454 -0.02025 0.02125
-0.0147438 -0.0100365 0.0205363
-0.015057 -0.0125 0.02
-0.0017292 -0.0173741 0.0165482
-0.00325 -0.01908 0.01825
-0.0150648 -0.00986772 0.0191484
-0.015555 -0.011 0.0175
-0.0153984 -0.0102877 0.0176075
-0.015556 -0.00975 0.016
-0.00325848 -0.0170334 0.0151679
-0.005 -0.01725 0.014946
-0.0153698 -0.0070261 0.0155792
-0.015556 -0.009 0.01375
-0.00411183 -0.0169746 0.0147517
-0.005 -0.016072 0.01275
-0.0154512 -0.00652831 0.0125581
-0.01525 -0.00775 0.011454
-0.0154767 -0.00561581 0.0124087
-0.015556 -0.00575 0.01025
-0.0014759 -0.0148058 0.0107196
-0.002173 -0.015 0.00875
0.00195188 -0.0125563 0.00762989
0 -0.013853 0.0075
-0.0155417 -0.0021152 0.00916204
-0.015556 -0.00175 0.00675
-0.0155526 -0.00127765 0.00704889
-0.015556 0.00025 0.00575
-0.0152919 0.00373915 0.00697914
-0.015556 0.0025 0.005
0.00362202 -0.0106815 0.00536543
0.002 -0.011661 0.004
-0.0145703 0.00738997 0.00450112
-0.015057 0.006 0.00325
-0.0119514 0.011188 0.00261453
-0.0135 0.009838 0.00225
0.00375216 -0.0097118 0.00331204
0.00325 -0.00925 0.001452
-0.0111869 0.0117288 0.00254751
-0.01125 0.012029 0.0005
0.00611439 -0.00579337 0.00108902
0.005 -0.006361 -0.0005
-0.0077766 0.0131381 0.000457897
-0.00925 0.013002 -0.00125
0.00694235 -0.00311323 -0.000445213
0.005559 -0.00425 -0.002
-0.00576782 0.0134988 -0.00049953
-0.006 0.013552 -0.0025
0.00755005 -0.000431449 -0.00157017
0.0065 -0.0015 -0.003049
-0.00264967 0.0140303 -0.00142858
-0.002 0.01425 -0.003651
0.00798089 0.00346034 -0.00241204
0.007072 0.004 -0.00425
0.00129042 0.0143355 -0.00279532
0.002048 0.01425 -0.0045
0.00773034 0.00672862 -0.00297934
0.006864 0.00575 -0.005
0.0069437 0.00829182 -0.00386463
0.006017 0.00925 -0.00525
-0.000631398 -0.0203395 0.0247658
-0.002 -0.0215 0.025919
-0.00123969 -0.0202429 0.0216505
-0.002 -0.02125 0.022656
-0.001544 -0.0203158 0.021397
-0.003 -0.02075 0.020612
-0.0151059 -0.0119088 0.0197202
-0.0155 -0.0125 0.018541
-0.00344501 -0.0187182 0.0176176
-0.00525 -0.01925 0.01745
-0.00486414 -0.0173104 0.0150256
-0.00625 -0.01837 0.016
-0.015395 -0.0104172 0.0168784
-0.01507 -0.01225 0.0155
-0.00572479 -0.0174918 0.0150423
-0.00675 -0.01705 0.01425
-0.0151692 -0.0113135 0.0153811
-0.015053 -0.011 0.0135
-0.00664819 -0.0170325 0.0142539
-0.008 -0.016073 0.01275
-0.014958 -0.0108903 0.0136119
-0.014581 -0.01025 0.01175
-0.00513578 -0.0162995 0.0129006
-0.0065 -0.015853 0.011
-0.00256033 -0.0154304 0.0118323
-0.00425 -0.015556 0.01025
-0.0153972 -0.00620779 0.0105581
-0.015057 -0.0075 0.0095
-0.015546 -0.00215564 0.00911343
-0.015556 -0.00475 0.0085
4.84517e-05 -0.0137272 0.00739117
-0.0015 -0.014515 0.007
0.000555595 -0.0133599 0.00719086
0 -0.013362 0.0055
-0.0154926 0.0023774 0.00526499
-0.015556 0.001 0.00425
-0.0154473 0.00297223 0.00548072
-0.015556 0.004 0.0035
0.00314103 -0.00992303 0.00256826
0.002 -0.010862 0.00225
-0.0147229 0.00697599 0.00333045
-0.014559 0.0075 0.00175
-0.0132837 0.00992735 0.00191749
-0.014055 0.009 0.00075
0.00452872 -0.00800047 0.00144394
0.00375 -0.008028 -0.00025
-0.0110949 0.011969 0.000501402
-0.01075 0.012072 -0.00125
0.00559448 -0.00441089 -0.00169685
0.0045 -0.005799 -0.00225
-0.0064157 0.0133961 -0.00199985
-0.00775 0.013056 -0.003
0.0059253 -0.003863 -0.00164635
0.005358 -0.003 -0.00375
-0.00276789 0.014124 -0.00310754
-0.004 0.014051 -0.00425
0.00729471 0.00315414 -0.00365482
0.006569 0.00175 -0.00475
0.00137213 0.014363 -0.0041645
0.0005 0.014556 -0.00525
LINES 599 1797
2 2 1
2 6 2
2 4 3
2 2 4
2 8 5
2 14 6
2 16 7
2 12 8
2 10 9
2 8 10
2 26 11
2 4 12
2 20 13
2 34 14
2 22 15
2 6 16
2 24 17
2 10 18
2 28 19
2 12 20
2 38 21
2 14 22
2 36 23
2 16 24
2 32 25
2 18 26
2 48 27
2 30 28
2 64 29
2 18 30
2 44 31
2 24 32
2 46 33
2 0 34
2 50 35
2 22 36
2 54 37
2 20 38
2 56 39
2 34 40
2 58 41
2 26 42
2 62 43
2 30 44
2 66 45
2 32 46
2 82 47
2 42 48
2 48 49
2 40 50
2 76 51
2 50 52
2 52 53
2 36 54
2 94 55
2 38 56
2 70 57
2 40 58
2 60 59
2 58 60
2 72 61
2 42 62
2 92 63
2 28 64
2 64 65
2 44 66
2 80 67
2 56 68
2 132 69
2 68 70
2 100 71
2 60 72
2 88 73
2 62 74
2 86 75
2 52 76
2 106 77
2 76 78
2 108 79
2 66 80
2 110 81
2 46 82
2 130 83
2 82 84
2 114 85
2 74 86
2 136 87
2 90 88
2 102 89
2 72 90
2 90 91
2 74 92
2 126 93
2 54 94
2 128 95
2 94 96
2 96 97
2 68 98
2 98 99
2 70 100
2 116 101
2 104 102
2 118 103
2 88 104
2 142 105
2 78 106
2 124 107
2 78 108
2 146 109
2 112 110
2 166 111
2 80 112
2 150 113
2 84 114
2 152 115
2 100 116
2 174 117
2 140 118
2 138 119
2 86 120
2 158 121
2 92 122
2 122 123
2 106 124
2 124 125
2 122 126
2 144 127
2 96 128
2 148 129
2 84 130
2 170 131
2 98 132
2 134 133
2 132 134
2 154 135
2 120 136
2 202 137
2 118 138
2 182 139
2 102 140
2 184 141
2 104 142
2 210 143
2 126 144
2 186 145
2 108 146
2 164 147
2 128 148
2 192 149
2 112 150
2 196 151
2 114 152
2 200 153
2 134 154
2 198 155
2 136 156
2 204 157
2 120 158
2 206 159
2 158 160
2 208 161
2 142 162
2 162 163
2 146 164
2 216 165
2 168 166
2 218 167
2 110 168
2 168 169
2 130 170
2 170 171
2 152 172
2 222 173
2 116 174
2 176 175
2 174 176
2 258 177
2 138 178
2 230 179
2 178 180
2 234 181
2 178 182
2 236 183
2 140 184
2 238 185
2 188 186
2 240 187
2 144 188
2 190 189
2 214 190
2 190 191
2 148 192
2 220 193
2 150 194
2 250 195
2 194 196
2 196 197
2 154 198
2 226 199
2 172 200
2 290 201
2 156 202
2 262 203
2 156 204
2 264 205
2 160 206
2 206 207
2 160 208
2 268 209
2 162 210
2 212 211
2 210 212
2 274 213
2 188 214
2 276 215
2 164 216
2 246 217
2 166 218
2 218 219
2 192 220
2 252 221
2 172 222
2 256 223
2 200 224
2 224 225
2 198 226
2 228 227
2 288 228
2 294 229
2 180 230
2 296 231
2 230 232
2 300 233
2 180 234
2 234 235
2 182 236
2 306 237
2 184 238
2 272 239
2 186 240
2 240 241
2 216 242
2 278 243
2 214 244
2 280 245
2 242 246
2 316 247
2 220 248
2 358 249
2 194 250
2 282 251
2 248 252
2 322 253
2 250 254
2 286 255
2 222 256
2 324 257
2 176 258
2 260 259
2 258 260
2 330 261
2 202 262
2 332 263
2 204 264
2 336 265
2 264 266
2 266 267
2 208 268
2 304 269
2 268 270
2 308 271
2 238 272
2 310 273
2 212 274
2 274 275
2 244 276
2 348 277
2 242 278
2 312 279
2 244 280
2 318 281
2 284 282
2 360 283
2 254 284
2 362 285
2 254 286
2 286 287
2 226 288
2 328 289
2 224 290
2 326 291
2 228 292
2 374 293
2 292 294
2 294 295
2 232 296
2 376 297
2 296 298
2 298 299
2 232 300
2 382 301
2 300 302
2 302 303
2 270 304
2 344 305
2 236 306
2 346 307
2 270 308
2 392 309
2 272 310
2 350 311
2 278 312
2 354 313
2 280 314
2 356 315
2 246 316
2 402 317
2 314 318
2 318 319
2 252 320
2 320 321
2 320 322
2 410 323
2 256 324
2 368 325
2 290 326
2 416 327
2 288 328
2 418 329
2 260 330
2 370 331
2 262 332
2 424 333
2 332 334
2 426 335
2 266 336
2 338 337
2 336 338
2 338 339
2 304 340
2 432 341
2 306 342
2 388 343
2 340 344
2 386 345
2 342 346
2 394 347
2 276 348
2 396 349
2 310 350
2 398 351
2 348 352
2 352 353
2 312 354
2 452 355
2 314 356
2 404 357
2 248 358
2 406 359
2 282 360
2 408 361
2 284 362
2 462 363
2 362 364
2 366 365
2 364 366
2 414 367
2 324 368
2 464 369
2 330 370
2 470 371
2 328 372
2 372 373
2 292 374
2 422 375
2 298 376
2 478 377
2 376 378
2 482 379
2 378 380
2 486 381
2 302 382
2 384 383
2 382 384
2 492 385
2 344 386
2 440 387
2 342 388
2 438 389
2 346 390
2 444 391
2 308 392
2 392 393
2 390 394
2 394 395
2 352 396
2 502 397
2 350 398
2 450 399
2 356 400
2 510 401
2 316 402
2 402 403
2 400 404
2 458 405
2 358 406
2 456 407
2 360 408
2 520 409
2 322 410
2 522 411
2 410 412
2 526 413
2 366 414
2 528 415
2 326 416
2 468 417
2 372 418
2 532 419
2 374 420
2 536 421
2 420 422
2 474 423
2 334 424
2 476 425
2 334 426
2 428 427
2 426 428
2 430 429
2 480 430
2 430 431
2 340 432
2 434 433
2 432 434
2 436 435
2 484 436
2 490 437
2 388 438
2 496 439
2 386 440
2 564 441
2 440 442
2 500 443
2 390 444
2 568 445
2 398 446
2 446 447
2 396 448
2 448 449
2 508 450
2 450 451
2 354 452
2 512 453
2 404 454
2 516 455
2 406 456
2 514 457
2 454 458
2 584 459
2 408 460
2 460 461
2 364 462
2 524 463
2 368 464
2 530 465
2 414 466
2 466 467
2 416 468
2 534 469
2 370 470
2 472 471
2 470 472
2 472 473
2 422 474
2 538 475
2 424 476
2 540 477
2 378 478
2 478 479
2 428 480
2 544 481
2 380 482
2 546 483
2 434 484
2 548 485
2 380 486
2 488 487
2 486 488
2 552 489
2 436 490
2 550 491
2 384 492
2 492 493
2 490 494
2 562 495
2 498 496
2 496 497
2 438 498
2 566 499
2 442 500
2 500 501
2 448 502
2 570 503
2 444 504
2 506 505
2 504 506
2 506 507
2 446 508
2 574 509
2 400 510
2 510 511
2 452 512
2 580 513
2 518 514
2 582 515
2 454 516
2 578 517
2 456 518
2 586 519
2 460 520
2 520 521
2 412 522
2 522 523
2 462 524
2 588 525
2 412 526
2 590 527
2 466 528
2 528 529
2 464 530
2 594 531
2 418 532
2 596 533
2 468 534
2 598 535
2 420 536
2 536 537
2 474 538
2 538 539
2 476 540
2 540 541
2 480 542
2 542 543
2 542 544
2 544 545
2 482 546
2 546 547
2 484 548
2 548 549
2 494 550
2 554 551
2 488 552
2 556 553
2 550 554
2 558 555
2 552 556
2 560 557
2 554 558
2 558 559
2 556 560
2 560 561
2 494 562
2 562 563
2 442 564
2 564 565
2 498 566
2 566 567
2 504 568
2 568 569
2 572 570
2 570 571
2 502 572
2 572 573
2 576 574
2 574 575
2 508 576
2 576 577
2 516 578
2 578 579
2 512 580
2 580 581
2 514 582
2 582 583
2 458 584
2 584 585
2 518 586
2 586 587
2 592 588
2 588 589
2 526 590
2 590 591
2 524 592
2 592 593
2 530 594
2 594 595
2 532 596
2 596 597
2 534 598
2 598 599
CELL_DATA 599
SCALARS radius float
LOOKUP_TABLE default
0.123455
0.927922
0.0873422
0.927193
0.100511
0.970884
0.0753563
0.851406
0.104172
0.850939
0.0759152
0.926934
0.0857861
1.00798
0.0930874
0.487972
0.116103
0.850418
0.0520152
0.563838
0.101441
0.477608
0.0812094
0.487372
0.117981
0.767582
0.136881
0.189072
0.0853708
0.546017
0.128463
0.485166
0.116221
1.11858
0.0831603
0.476427
0.0543429
0.563175
0.103867
0.721418
0.0702636
0.767334
0.0763921
0.538353
0.0935077
0.482829
0.0625019
0.190654
0.163434
0.424406
0.0731347
0.423339
0.133218
0.475639
0.110011
0.562076
0.0804068
0.668698
0.102278
0.668439
0.0891412
0.763391
0.0718828
0.18775
0.181672
0.535903
0.125751
0.560891
0.0945418
0.386256
0.137142
0.66764
0.0890847
0.763136
0.0728934
0.418895
0.0963654
0.41815
0.086905
0.534953
0.0830683
0.480574
0.0809169
0.480221
0.121818
0.659247
0.0789485
0.665449
0.0912494
0.66711
0.130308
0.540519
0.0632848
0.475402
0.101854
0.47343
0.131912
0.491632
0.132798
0.385092
0.127965
0.64823
0.0664155
0.664916
0.0830549
0.193962
0.0867614
0.403749
0.0626106
0.268392
0.068166
0.532626
0.0776521
0.464826
0.116103
0.379204
0.131647
0.596742
0.0974734
0.65895
0.0923062
0.540095
0.136929
0.185685
0.179143
0.537145
0.1409
0.469992
0.121162
0.217669
0.0933786
0.488381
0.138074
0.487197
0.0964319
0.494123
0.11544
0.596467
0.0712736
0.647627
0.074073
0.278412
0.0907034
0.536852
0.0844778
0.402402
0.116252
0.468392
0.118436
0.508865
0.0901103
0.462021
0.104845
0.483472
0.141967
0.49345
0.0715568
0.549015
0.102018
0.548143
0.100491
0.275926
0.151419
0.401896
0.133019
0.239479
0.155022
0.265713
0.171293
0.213876
0.20777
0.459564
0.0919884
0.374283
0.142342
0.368773
0.131815
0.595598
0.0991026
0.500048
0.0860118
0.441819
0.0664256
0.389581
0.0640382
0.219127
0.137843
0.533597
0.108043
0.178211
0.163847
0.465674
0.134846
0.508262
0.0844336
0.18276
0.175145
0.48219
0.132887
0.370646
0.107368
0.44945
0.120682
0.3085
0.0971494
0.180118
0.168472
0.541582
0.109762
0.259802
0.157675
0.256063
0.144302
0.520983
0.105493
0.398628
0.0651091
0.237624
0.213209
0.463106
0.0852053
0.358669
0.13663
0.367829
0.15145
0.478053
0.108203
0.401857
0.144706
0.491787
0.0892884
0.490442
0.0935279
0.182666
0.176075
0.4412
0.0719163
0.388686
0.124138
0.214859
0.193986
0.393628
0.135207
0.513938
0.0923614
0.267386
0.152939
0.459263
0.0819662
0.50026
0.0884437
0.370771
0.132515
0.499457
0.133413
0.35664
0.120697
0.361564
0.150407
0.355628
0.149022
0.446897
0.130372
0.307211
0.117765
0.303938
0.187233
0.540427
0.102546
0.538913
0.0964699
0.388106
0.125624
0.234345
0.214468
0.375059
0.114944
0.347252
0.142818
0.436186
0.146869
0.335846
0.156165
0.485008
0.0944517
0.218998
0.201066
0.474605
0.0872956
0.359063
0.151552
0.399225
0.101765
0.221078
0.198109
0.443787
0.0969941
0.442579
0.14583
0.312663
0.0852652
0.309848
0.171009
0.521909
0.0729605
0.440697
0.0678051
0.243022
0.10788
0.383825
0.137543
0.34028
0.157256
0.434801
0.101619
0.266093
0.132626
0.220134
0.195738
0.369265
0.157528
0.359451
0.115934
0.349827
0.164521
0.355834
0.161757
0.347628
0.133401
0.346424
0.17835
0.443944
0.128017
0.440164
0.146807
0.278124
0.204502
0.2709
0.224586
0.520586
0.0990822
0.440058
0.103965
0.353033
0.158206
0.362584
0.100358
0.372256
0.142862
0.379286
0.122052
0.368567
0.162049
0.331679
0.101932
0.415115
0.08362
0.358041
0.137681
0.333788
0.103611
0.423971
0.127083
0.422402
0.0951426
0.331395
0.180889
0.34497
0.165718
0.336976
0.183644
0.345783
0.181171
0.375211
0.0854863
0.437237
0.126859
0.43564
0.0904339
0.413193
0.156922
0.291409
0.173218
0.288955
0.158892
0.351992
0.137258
0.334865
0.131455
0.361792
0.144623
0.237845
0.230205
0.215757
0.208262
0.357814
0.106001
0.373158
0.11453
0.413075
0.132515
0.248057
0.234715
0.383686
0.140878
0.356603
0.150714
0.321982
0.157506
0.353344
0.132143
0.349134
0.168997
0.32876
0.117921
0.346424
0.156511
0.32834
0.173873
0.372699
0.142026
0.323049
0.21532
0.311253
0.167288
0.380584
0.171725
0.373159
0.134336
0.245763
0.231581
0.459604
0.145514
0.458064
0.150282
0.421834
0.160231
0.331491
0.161711
0.340999
0.142977
0.333418
0.163563
0.334157
0.106431
0.368754
0.18156
0.350056
0.19195
0.232079
0.222382
0.31945
0.163003
0.382358
0.147489
0.349627
0.11936
0.307095
0.178131
0.318365
0.219453
0.339039
0.144108
0.332017
0.180508
0.309387
0.226873
0.334245
0.205052
0.319425
0.229285
0.297754
0.242974
0.321041
0.193065
0.30386
0.201193
0.229786
0.216099
0.36062
0.145907
0.250751
0.176267
0.453115
0.181787
0.379781
0.159385
0.370632
0.18426
0.415378
0.121924
0.266508
0.246169
0.407273
0.165096
0.244079
0.217662
0.324451
0.181851
0.270375
0.248737
0.329652
0.147553
0.324872
0.184184
0.282455
0.253479
0.353457
0.158327
0.241009
0.226838
0.315953
0.2236
0.284177
0.176018
0.299772
0.223884
0.34003
0.133127
0.278922
0.261061
0.244942
0.231385
0.33298
0.164399
0.303159
0.196961
0.261769
0.253536
0.317642
0.217711
0.32083
0.221204
0.32239
0.21283
0.262345
0.247663
0.284823
0.25151
0.28592
0.247875
0.317657
0.231743
0.269655
0.25459
0.246768
0.212162
0.261919
0.228692
0.34766
0.222529
0.360535
0.200371
0.342588
0.138287
0.34372
0.166812
0.307897
0.298303
0.319334
0.303377
0.29447
0.276042
0.258633
0.243162
0.269683
0.238696
0.22736
0.219304
0.278718
0.26419
0.325957
0.235015
0.265279
0.244964
0.316346
0.235071
0.287365
0.23213
0.300773
0.252142
0.276977
0.250904
0.296876
0.273743
0.253888
0.241049
0.271954
0.250241
0.284533
0.248765
0.323728
0.239937
0.296884
0.251185
0.302815
0.256842
0.291957
0.24796
