# vtk DataFile Version 3.0
Tree
ASCII
DATASET POLYDATA
POINTS 400 float
-0.004 0.02 0.0265
0.0065 0.01 0.026302
0.00461 0.0117065 0.0248517
0.00725 0.009063 0.02275
0.00669862 0.00931291 0.0233525
0.008403 0.00575 0.023
0.002251 0.0141968 0.0248625
0.004365 0.0135 0.02175
0.00790409 0.00703517 0.022511
0.009056 0.00525 0.02075
0.00808722 0.00597695 0.0227465
0.00825 0.001955 0.02325
0.00708459 0.00913797 0.0229307
0.00752 0.0095 0.0185
-0.00062446 0.0168663 0.0256158
0.00025 0.016072 0.02175
0.00379436 0.0135481 0.0220304
0.004366 0.0125 0.01775
0.00838187 0.00368813 0.0223383
0.009 0.00125 0.020857
0.00844665 0.00644325 0.021229
0.009558 0.00625 0.01675
-0.000615931 0.0166789 0.0240308
-0.00225 0.01706 0.02175
-1.8076e-05 0.0160723 0.0219533
0.0005 0.014557 0.0175
0.00895791 0.00666764 0.0180726
0.00805 0.00875 0.015
-0.0017738 0.0168801 0.0220508
-0.002 0.01651 0.0195
0.0039255 0.012853 0.0185907
0.002322 0.013 0.0155
0.00331617 0.0129089 0.0174162
0.00525 0.010582 0.01375
0.00867865 0.00157835 0.0213796
0.00825 -0.0025 0.020887
0.0089036 0.0013485 0.0210138
0.010057 0.001 0.01675
0.00936184 0.00644078 0.0168637
0.01 0.00633 0.0135
0.00833589 -0.000408775 0.0217885
0.007057 -0.00475 0.02525
-0.00210714 0.017006 0.0218402
-0.0055 0.01706 0.0205
-0.00214893 0.0164685 0.0197936
-0.0035 0.0155 0.016678
0.00227488 0.0130031 0.0159065
-0.0005 0.01325 0.013613
0.00949753 0.00668144 0.0147014
0.008371 0.0085 0.01175
-0.00448214 0.0170438 0.0209021
-0.008582 0.01475 0.02325
0.00840707 -0.00126618 0.0210847
0.00901 -0.0025 0.0185
0.00991331 0.00146152 0.0174844
0.010862 0.00225 0.0145
0.00375904 0.0121328 0.0156681
0.00275 0.011853 0.012
0.00498744 0.0109296 0.0138129
0.00625 0.010074 0.0105
-0.00768532 0.0148793 0.0225461
-0.010084 0.01125 0.02275
0.00822234 -0.00238946 0.0208828
0.00757 -0.0055 0.02025
-0.00519464 0.0170551 0.0206206
-0.007 0.015517 0.0175
0.00999924 0.000992298 0.0168472
0.01025 -0.001 0.014349
0.00985334 0.00617615 0.0139288
0.01107 0.00375 0.0115
0.00522509 0.0107434 0.012391
0.00425 0.01125 0.010046
0.00746163 -0.00352975 0.0237235
0.00675 -0.006887 0.023
-0.00672437 0.0155287 0.0220529
-0.009 0.014827 0.0205
0.00872758 -0.00241816 0.0192725
0.0085 -0.005 0.017556
-0.00362766 0.0155484 0.0171352
-0.0055 0.014566 0.01475
-0.000382039 0.0132567 0.0138953
-0.00325 0.013556 0.012
-0.000445738 0.0132531 0.0137428
0 0.01256 0.01025
0.00909047 0.00761302 0.0126341
0.01005 0.00775 0.009
-0.0099748 0.011421 0.0227487
-0.01175 0.00875 0.02292
-0.0107961 0.00997223 0.0224938
-0.011403 0.00775 0.0205
-0.00892164 0.0130119 0.0226555
-0.010689 0.0115 0.019
-0.00682755 0.0156571 0.0182376
-0.00925 0.013551 0.01675
0.0100222 -0.000729556 0.0152095
0.00925 -0.004049 0.01425
0.0101817 -0.000918867 0.0146071
0.011053 0.00025 0.01175
0.0105485 0.00500324 0.0122294
0.011082 0.00525 0.00925
0.00625327 0.0102444 0.0106994
0.00825 0.01 0.008277
0.00683401 -0.00611278 0.0235682
0.005571 -0.00975 0.02525
-0.011177 0.00842834 0.0216962
-0.012 0.0045 0.021781
0.00763427 -0.00527463 0.0201725
0.007054 -0.00825 0.01925
0.00736735 -0.0066433 0.0197482
0.007572 -0.00725 0.017
-0.00764576 0.0147957 0.0172777
-0.008 0.013566 0.01425
-0.00763101 0.013995 0.0149247
-0.00625 0.013556 0.0115
0.010906 0.00403997 0.0114636
0.0115 0.001972 0.009
0.00425 0.0113974 0.0103411
0.002857 0.0125 0.00775
0.00701203 0.0101515 0.00977886
0.00625 0.011545 0.007
0.00635407 -0.00749493 0.0242073
0.006 -0.010333 0.022
-0.0116153 0.00651297 0.0213834
-0.01225 0.004568 0.01925
-0.0113352 0.0079535 0.0208589
-0.012 0.009 0.017531
-0.00907193 0.0135649 0.0167525
-0.011072 0.01125 0.01575
-0.00801634 0.013611 0.0143301
-0.00925 0.01257 0.01275
0.0102186 -0.000962679 0.0144677
0.010029 -0.00325 0.01075
-0.000612326 0.0129853 0.0118214
-0.00275 0.013073 0.00875
-0.0002633 0.0128125 0.0105057
0 0.013057 0.00725
0.0100095 0.00742617 0.00939291
0.011002 0.00675 0.00625
0.00577353 -0.00920572 0.0247101
0.00506 -0.0115 0.024
-0.0119456 0.00460954 0.0216375
-0.012573 0.00025 0.02175
0.00700112 -0.00809619 0.0193145
0.006072 -0.01025 0.01875
-0.0117128 0.00803257 0.0194033
-0.01275 0.0065 0.01688
0.00762635 -0.00707742 0.0171794
0.008 -0.007327 0.0145
0.00930252 -0.00353306 0.013997
0.008555 -0.006 0.01225
-0.00690192 0.0136427 0.0120359
-0.007 0.013364 0.0095
0.011183 0.00304015 0.00977937
0.01106 0.00325 0.007
0.0103638 0.00737484 0.00774789
0.010059 0.00875 0.0055
0.00693208 0.010758 0.00813722
0.008346 0.011 0.005
0.00578768 -0.0102307 0.0223251
0.00525 -0.012049 0.02125
-0.0121338 0.00330168 0.0216713
-0.013 0.00175 0.01886
0.00762635 -0.00707742 0.0171794
0.006555 -0.0095 0.0165
-0.0120045 0.00860022 0.017797
-0.01275 0.008563 0.01475
-0.00913322 0.0126965 0.013303
-0.0115 0.010871 0.01275
-0.00921497 0.0126079 0.0129159
-0.00925 0.012529 0.01025
0.0101672 -0.00220444 0.0117012
0.010542 -0.0015 0.00825
-0.00279906 0.0132438 0.0090464
-0.00475 0.013557 0.00675
-0.000364256 0.0131182 0.00773182
-0.001 0.013555 0.00525
0.00645373 0.0114033 0.00705209
0.006 0.0125 0.004529
-0.000109277 0.0130754 0.00739455
0.0025 0.013074 0.00425
-0.012762 0.000666537 0.0219118
-0.01375 -0.00175 0.022418
-0.0126902 0.000508253 0.0218503
-0.01325 -0.00125 0.019546
0.006183 -0.00987847 0.0186574
0.005073 -0.01175 0.017
-0.0125035 0.0065814 0.017605
-0.013582 0.00325 0.01575
0.0071794 -0.00805346 0.0165509
0.0065 -0.009377 0.014
0.00689714 -0.0086221 0.0148169
0.00725 -0.00805 0.012
0.00868613 -0.00543893 0.0124067
0.00805 -0.00675 0.01
0.00997935 -0.00291423 0.010809
0.00925 -0.004063 0.00825
0.0104249 -0.00130542 0.00879439
0.010552 0 0.00625
0.0105091 7.22656e-05 0.0065742
0.010544 0.00175 0.0045
0.0106632 0.00673868 0.00650909
0.010542 0.00475 0.0035
0.0106171 0.00598298 0.00536564
0.010042 0.00725 0.003
0.00512634 -0.011056 0.0244235
0.00375 -0.014064 0.02525
-0.0133772 -0.00118421 0.0220423
-0.013557 -0.00375 0.021
-0.0130991 -0.000494611 0.0201011
-0.013572 -0.00025 0.01775
0.00668268 -0.00902974 0.0143758
0.0055 -0.010877 0.015
-0.012827 0.00558198 0.0170485
-0.014053 0.00575 0.014
-0.0127914 0.00838339 0.015095
-0.01375 0.007879 0.0125
-0.011036 0.0111791 0.0126193
-0.01275 0.009551 0.01075
-0.00951494 0.0124222 0.0112213
-0.01125 0.011524 0.009
-0.00932892 0.01253 0.0102827
-0.009 0.012864 0.0075
0.0105069 -0.00144163 0.00841332
0.0095 -0.003 0.00597
0.0105357 2.74609e-05 0.0063732
0.009581 -0.00075 0.00425
0.00113301 0.0131422 0.00542715
0.00075 0.013557 0.003
0.0100594 0.00718791 0.00353372
0.009057 0.00925 0.00225
0.00594751 0.0123089 0.00486233
0.00475 0.01325 0.002044
0.00430682 -0.0129534 0.0245796
0.0035 -0.01537 0.023
0.00522017 -0.0118833 0.0214003
0.004 -0.014372 0.02025
-0.0132876 -0.00117975 0.0196477
-0.014068 -0.0035 0.01825
0.00505776 -0.0115711 0.0172381
0.00375 -0.01325 0.015956
-0.0135558 0.00341279 0.0159894
-0.014567 0.0005 0.01475
0.00589317 -0.0100921 0.0144434
0.004 -0.012 0.013298
0.00655481 -0.00927282 0.0141127
0.00575 -0.010028 0.01175
0.00708473 -0.00827433 0.0124456
0.00675 -0.008549 0.00975
0.00823956 -0.00626046 0.010188
0.008 -0.0065 0.007921
0.00963185 -0.00286624 0.0066339
0.0085 -0.00505 0.006
-0.00884381 0.0128671 0.00790132
-0.00725 0.01353 0.005
-0.00112749 0.0134024 0.00590864
-0.0035 0.013557 0.00375
0.0103915 0.000923574 0.00511191
0.009562 0.001 0.0025
0.0104143 0.00486455 0.00360588
0.01 0.00375 0.001746
0.0090118 0.00915013 0.00243819
0.00775 0.01125 0.001455
0.00380489 -0.0139535 0.0250154
0.00275 -0.016051 0.02525
-0.0135663 -0.00327197 0.0215398
-0.014073 -0.00675 0.02225
-0.013651 -0.00371296 0.0211085
-0.014189 -0.0055 0.0195
0.00438158 -0.0125113 0.0169636
0.00275 -0.015049 0.01775
-0.0136945 -0.00199105 0.0187596
-0.014689 -0.0025 0.016
0.00420457 -0.0117395 0.0137911
0.002567 -0.01325 0.01375
-0.0135679 0.00333791 0.0158793
-0.015 0.003 0.012818
-0.0138558 0.00555623 0.0142884
-0.01475 0.00525 0.011546
0.00572944 -0.00999518 0.0121779
0.004051 -0.01125 0.01025
-0.0126408 0.00963931 0.0107066
-0.014 0.008327 0.009
0.00661519 -0.00858738 0.00998258
0.005886 -0.009 0.0075
-0.00890316 0.0128659 0.00774882
-0.01125 0.011551 0.00625
0.0092923 -0.00352137 0.00644373
0.0085 -0.003871 0.00425
-0.00721251 0.0133785 0.00513632
-0.00575 0.013557 0.003
0.000604054 0.0134738 0.00367506
-0.00125 0.014 0.001754
0.000706216 0.0135321 0.00320252
0.0025 0.01405 0.001
0.0100472 0.00723137 0.00316012
0.00906 0.007 0.0005
0.00902536 0.00918009 0.00238173
0.008511 0.009 0
0.00517833 0.0129959 0.00247063
0.0055 0.01325 -0.000344
0.00340818 -0.0150671 0.0231555
0.00225 -0.01705 0.02175
0.00313211 -0.0146093 0.0179883
0.00225 -0.016379 0.0195
-0.0140626 -0.00337258 0.0182669
-0.01475 -0.0055 0.017388
0.00379211 -0.0131015 0.016406
0.00175 -0.01488 0.0155
-0.0145278 -0.00219714 0.0162898
-0.01525 -0.002 0.013881
-0.0144246 0.00122429 0.0147696
-0.0155 5.6e-05 0.0125
0.00406137 -0.0119218 0.0134459
0.0025 -0.01275 0.011156
-0.0134958 0.00860051 0.00980386
-0.014573 0.00625 0.0095
0.00612862 -0.00900156 0.00903472
0.004546 -0.01075 0.008
-0.013647 0.00851846 0.0095627
-0.01305 0.00975 0.007
0.00850392 -0.00494527 0.00608103
0.007 -0.00725 0.005723
-0.00960721 0.0124714 0.00729917
-0.00975 0.012572 0.0045
-0.00722376 0.0134239 0.00509542
-0.00825 0.013073 0.003
0.00884069 -0.00349456 0.0048433
0.0085 -0.002256 0.00175
-0.00289442 0.0135153 0.00394783
-0.00375 0.013557 0.001
0.00967008 0.00111554 0.00268649
0.009 0.0015 0.000181
0.00128898 0.0138042 0.00163721
0.00125 0.01406 -0.0005
0.0094761 0.00674949 0.00145835
0.009 0.0045 -0.000825
0.00852806 0.00932244 0.000849145
0.007053 0.01075 -0.00125
0.00286444 -0.0157925 0.0250466
0.001533 -0.01825 0.02425
-0.0140461 -0.00626703 0.0217427
-0.014556 -0.009 0.02125
-0.0141991 -0.00708692 0.0215949
-0.014694 -0.008 0.019
0.00286747 -0.0151402 0.0184418
0.00075 -0.01675 0.017457
0.00176299 -0.0146968 0.0156474
4.6e-05 -0.01575 0.01525
0.00175909 -0.0147517 0.0156032
0.000387 -0.01475 0.0135
0.000809404 -0.0146455 0.0138229
0.000758 -0.014 0.01175
-0.0146974 0.00275813 0.0132186
-0.015556 0.00175 0.01075
-0.0150753 0.00251615 0.011799
-0.01525 0.00355 0.00925
-0.0139372 0.0077068 0.00943428
-0.014571 0.00675 0.00775
-0.0134973 0.00891191 0.00820198
-0.01407 0.00825 0.00625
0.00582882 -0.00907054 0.00772215
0.004871 -0.0095 0.00525
0.00723106 -0.00671718 0.00557845
0.00575 -0.007889 0.004
0.00849875 -0.00387207 0.00437128
0.00725 -0.00525 0.002955
-0.00655388 0.0134799 0.00370862
-0.007 0.013555 0.0015
0.00967008 0.00111554 0.00268649
0.00825 -0.000547 0.00025
-0.000714405 0.0138658 0.00195713
-0.001 0.014056 -0.0005
0.00216476 0.0139373 0.000959
0.003825 0.014 -0.00125
0.00929518 0.00589468 0.000590677
0.008353 0.0065 -0.00175
0.00859834 0.00653314 -0.000972203
0.00775 0.00825 -0.002046
-0.0144297 -0.00842238 0.0216332
-0.01475 -0.01075 0.022928
0.00225612 -0.0162424 0.0192923
0.00075 -0.0185 0.020662
0.00100759 -0.0164673 0.0178542
-0.00075 -0.01758 0.01775
-0.01467 -0.00544923 0.0174383
-0.01525 -0.00775 0.016563
-0.014694 -0.00546446 0.0174232
-0.0155 -0.005243 0.01525
-0.0148668 -0.00243131 0.0152488
-0.015556 -0.00425 0.0135
-0.0152045 -0.00314747 0.0141469
-0.015556 -0.003 0.01175
-0.015433 -0.00280661 0.0123789
-0.015556 -0.00125 0.01025
0.00257964 -0.0127079 0.0113551
0.001 -0.013546 0.00925
-0.0153493 0.00200944 0.0108511
-0.015556 0.00125 0.00825
0.00460617 -0.0104874 0.00820389
0.0025 -0.01231 0.00725
LINES 399 1197
2 2 1
2 6 2
2 12 3
2 2 4
2 10 5
2 14 6
2 16 7
2 4 8
2 20 9
2 8 10
2 18 11
2 4 12
2 12 13
2 0 14
2 24 15
2 6 16
2 30 17
2 10 18
2 36 19
2 8 20
2 38 21
2 14 22
2 42 23
2 22 24
2 24 25
2 20 26
2 26 27
2 22 28
2 44 29
2 16 30
2 46 31
2 30 32
2 58 33
2 18 34
2 62 35
2 34 36
2 66 37
2 26 38
2 68 39
2 34 40
2 72 41
2 28 42
2 64 43
2 28 44
2 78 45
2 32 46
2 82 47
2 38 48
2 84 49
2 42 50
2 60 51
2 40 52
2 76 53
2 36 54
2 54 55
2 32 56
2 56 57
2 56 58
2 100 59
2 74 60
2 86 61
2 52 62
2 106 63
2 50 64
2 92 65
2 54 66
2 130 67
2 48 68
2 114 69
2 58 70
2 116 71
2 40 72
2 102 73
2 50 74
2 74 75
2 52 76
2 76 77
2 44 78
2 78 79
2 46 80
2 80 81
2 80 82
2 134 83
2 48 84
2 136 85
2 90 86
2 88 87
2 86 88
2 124 89
2 60 90
2 90 91
2 64 92
2 126 93
2 66 94
2 148 95
2 94 96
2 96 97
2 68 98
2 98 99
2 70 100
2 118 101
2 72 102
2 138 103
2 88 104
2 140 105
2 62 106
2 142 107
2 106 108
2 162 109
2 92 110
2 128 111
2 110 112
2 150 113
2 98 114
2 152 115
2 70 116
2 116 117
2 100 118
2 176 119
2 102 120
2 158 121
2 104 122
2 122 123
2 104 124
2 164 125
2 110 126
2 126 127
2 112 128
2 168 129
2 96 130
2 194 131
2 82 132
2 172 133
2 132 134
2 178 135
2 84 136
2 200 137
2 120 138
2 204 139
2 122 140
2 182 141
2 108 142
2 184 143
2 124 144
2 186 145
2 108 146
2 146 147
2 94 148
2 192 149
2 112 150
2 150 151
2 114 152
2 152 153
2 136 154
2 154 155
2 118 156
2 156 157
2 120 158
2 234 159
2 140 160
2 160 161
2 146 162
2 188 163
2 144 164
2 214 165
2 128 166
2 216 167
2 166 168
2 220 169
2 130 170
2 222 171
2 132 172
2 172 173
2 134 174
2 254 175
2 156 176
2 230 177
2 174 178
2 226 179
2 160 180
2 206 181
2 180 182
2 236 183
2 142 184
2 238 185
2 144 186
2 274 187
2 162 188
2 244 189
2 188 190
2 246 191
2 148 192
2 248 193
2 170 194
2 194 195
2 170 196
2 224 197
2 196 198
2 256 199
2 154 200
2 258 201
2 200 202
2 294 203
2 138 204
2 262 205
2 180 206
2 266 207
2 182 208
2 208 209
2 190 210
2 242 211
2 186 212
2 276 213
2 164 214
2 214 215
2 166 216
2 280 217
2 168 218
2 218 219
2 218 220
2 284 221
2 196 222
2 250 223
2 198 224
2 224 225
2 178 226
2 292 227
2 202 228
2 296 229
2 176 230
2 298 231
2 204 232
2 300 233
2 158 234
2 234 235
2 208 236
2 304 237
2 184 238
2 306 239
2 212 240
2 310 241
2 210 242
2 312 243
2 210 244
2 278 245
2 190 246
2 282 247
2 192 248
2 248 249
2 222 250
2 320 251
2 220 252
2 324 253
2 174 254
2 328 255
2 198 256
2 330 257
2 202 258
2 258 259
2 228 260
2 260 261
2 232 262
2 338 263
2 206 264
2 340 265
2 264 266
2 266 267
2 238 268
2 302 269
2 236 270
2 308 271
2 242 272
2 272 273
2 240 274
2 352 275
2 212 276
2 276 277
2 244 278
2 278 279
2 216 280
2 318 281
2 246 282
2 360 283
2 252 284
2 322 285
2 250 286
2 364 287
2 252 288
2 366 289
2 226 290
2 370 291
2 290 292
2 372 293
2 228 294
2 334 295
2 260 296
2 336 297
2 230 298
2 298 299
2 232 300
2 300 301
2 268 302
2 380 303
2 270 304
2 386 305
2 268 306
2 348 307
2 270 308
2 388 309
2 240 310
2 310 311
2 272 312
2 394 313
2 280 314
2 356 315
2 282 316
2 398 317
2 314 318
2 358 319
2 286 320
2 362 321
2 284 322
2 322 323
2 288 324
2 324 325
2 286 326
2 326 327
2 254 328
2 328 329
2 256 330
2 368 331
2 292 332
2 332 333
2 294 334
2 374 335
2 296 336
2 336 337
2 262 338
2 338 339
2 264 340
2 378 341
2 340 342
2 342 343
2 302 344
2 382 345
2 306 346
2 346 347
2 346 348
2 350 349
2 348 350
2 350 351
2 274 352
2 396 353
2 352 354
2 354 355
2 314 356
2 356 357
2 318 358
2 358 359
2 316 360
2 360 361
2 320 362
2 362 363
2 326 364
2 364 365
2 288 366
2 366 367
2 330 368
2 368 369
2 290 370
2 370 371
2 332 372
2 372 373
2 334 374
2 376 375
2 374 376
2 376 377
2 342 378
2 378 379
2 344 380
2 380 381
2 344 382
2 382 383
2 304 384
2 384 385
2 384 386
2 386 387
2 308 388
2 390 389
2 388 390
2 392 391
2 390 392
2 392 393
2 312 394
2 394 395
2 354 396
2 396 397
2 316 398
2 398 399
CELL_DATA 399
SCALARS radius float
LOOKUP_TABLE default
0.139186
0.870942
0.0813356
0.869756
0.0917686
0.943185
0.0962952
0.86749
0.122514
0.79445
0.133817
0.172453
0.166198
1.07849
0.0913697
0.562953
0.112178
0.794042
0.0782315
0.532979
0.0874304
0.746133
0.0684767
0.184724
0.17695
0.530813
0.162892
0.74234
0.0897784
0.562013
0.0932167
0.560519
0.101125
0.792773
0.0699525
0.55577
0.0710462
0.525649
0.105434
0.688649
0.148331
0.735964
0.0821166
0.218629
0.123566
0.477774
0.0754982
0.524842
0.138725
0.735766
0.115219
0.620238
0.133271
0.555253
0.16237
0.406244
0.164367
0.397069
0.0974165
0.642798
0.077742
0.612553
0.0881193
0.506306
0.106043
0.550585
0.0768712
0.298422
0.11432
0.394871
0.11858
0.444763
0.130387
0.645146
0.142966
0.206141
0.185593
0.213462
0.198657
0.476588
0.167501
0.469589
0.10727
0.490481
0.113681
0.637971
0.132745
0.637586
0.0984154
0.641561
0.16397
0.505585
0.0900595
0.550191
0.1252
0.518334
0.17143
0.293969
0.183028
0.37051
0.166802
0.439194
0.135865
0.635662
0.0837414
0.612249
0.0850897
0.61164
0.0951758
0.504025
0.0676077
0.494505
0.144687
0.268112
0.187101
0.220404
0.208311
0.368251
0.113323
0.435329
0.131681
0.548473
0.161899
0.451201
0.115696
0.192378
0.18556
0.480552
0.0825662
0.512006
0.117173
0.468938
0.127052
0.44917
0.0926852
0.486754
0.116325
0.390646
0.136331
0.54373
0.101291
0.462373
0.109331
0.449635
0.124495
0.506536
0.171984
0.30106
0.145932
0.215081
0.190568
0.260996
0.223931
0.484678
0.177679
0.356471
0.20432
0.283915
0.137282
0.543067
0.175195
0.499839
0.153987
0.251428
0.138582
0.480106
0.118747
0.397867
0.0745971
0.511428
0.0951431
0.232073
0.218614
0.447121
0.141705
0.332523
0.143672
0.403876
0.176849
0.53692
0.135219
0.456995
0.0883677
0.46141
0.108172
0.421733
0.0936522
0.498686
0.0960304
0.493743
0.132201
0.293662
0.178797
0.212203
0.199555
0.498949
0.0986597
0.382059
0.17418
0.476584
0.126072
0.474263
0.102843
0.385089
0.130679
0.390056
0.10534
0.45533
0.179321
0.397375
0.156099
0.418085
0.137403
0.242982
0.226917
0.362623
0.0949292
0.396678
0.175621
0.384855
0.109378
0.409053
0.145518
0.213981
0.206748
0.402242
0.114492
0.452429
0.114859
0.328076
0.200628
0.379307
0.162516
0.27414
0.262147
0.445863
0.100223
0.459355
0.131672
0.389322
0.168105
0.355839
0.117395
0.260569
0.148515
0.386235
0.124759
0.281122
0.254588
0.40733
0.11133
0.383918
0.111988
0.286468
0.169448
0.35823
0.142968
0.241387
0.229332
0.351477
0.23296
0.312666
0.168617
0.384562
0.163121
0.220982
0.212696
0.457346
0.150792
0.444703
0.139508
0.34553
0.21393
0.346093
0.146909
0.241409
0.225553
0.256146
0.238288
0.358328
0.155227
0.381001
0.148711
0.26303
0.196729
0.401042
0.120005
0.337342
0.210559
0.390508
0.175481
0.336922
0.163984
0.3664
0.180296
0.313384
0.204723
0.318622
0.289532
0.288475
0.270142
0.37242
0.144331
0.323729
0.105704
0.353056
0.119186
0.378018
0.19879
0.259897
0.23395
0.315692
0.157058
0.356093
0.205565
0.376489
0.170232
0.296274
0.213608
0.31633
0.198205
0.256568
0.210108
0.233792
0.224892
0.320261
0.247844
0.27441
0.250919
0.343941
0.2587
0.332456
0.227837
0.363679
0.22633
0.308154
0.274491
0.304863
0.286597
0.358515
0.194852
0.346885
0.242034
0.36399
0.190292
0.346843
0.222403
0.313204
0.196392
0.307342
0.277877
0.343792
0.161077
0.334607
0.239334
0.267526
0.2187
0.28133
0.232201
0.286071
0.271994
0.311665
0.282257
0.260236
0.251435
0.294763
0.253422
0.335501
0.273466
0.277222
0.251465
0.292084
0.273725
0.348264
0.214613
0.312939
0.274844
0.302067
0.272182
0.282994
0.269881
0.294572
0.265287
0.320495
0.253104
0.255638
0.249466
0.371575
0.209814
0.35155
0.208052
0.324629
0.293199
0.310185
0.296137
0.28746
0.269503
0.310564
0.292483
