# vtk DataFile Version 3.0
Tree
ASCII
DATASET POLYDATA
POINTS 1300 float
34443.5 55443.5 6443.45
33438.5 52817.5 12801.5
33820.4 53815.4 10385.4
37151.5 52322.5 13543.5
33691.7 52978.3 12457.8
34428.5 51827.5 15523.5
33534.7 52878.6 12670.9
28983.5 49599.5 15771.5
36460 52275.1 13349.1
38636.5 49104.5 18245.4
33997.4 51953.1 15039.5
33191.5 49847.5 19730.4
29623.3 50242.4 14761
24776.4 47867.5 14533.5
28928.7 49650.2 15671.9
26261.5 47619.5 18741.4
38321.9 49588.2 18040.8
39378.5 48114.5 21711.4
38517 49288.3 18167.6
42843.5 44154.5 16265.5
39340 48540.3 20133
42348.5 46629.5 21711.4
32687 50244.1 18575.9
30221.5 48362.5 22700.4
27402.8 48365 18013.4
29478.5 48114.5 21463.4
33251.6 49914 19545.9
35170.5 49104.5 21958.4
39217.2 48504.3 21299.9
38388.5 49104.5 25423.5
27826.3 48140.4 20974.6
28983.5 48857.5 25670.5
41470.6 46792.9 20928.7
45318.5 41927.5 20968.4
44244.9 42825.3 20611.2
45070.5 38957.5 18493.4
38121.1 48950.4 23927.5
33933.5 49847.5 27403.5
27776.2 47971.2 21123.9
24033.4 47124.5 25670.5
44910.5 42268.7 20832.7
45813.5 40442.5 25670.5
38286.9 49046 24855
39130.5 48609.5 31611.5
44892 40479.6 19954.5
46803.5 35739.5 21215.4
35029.4 49605.3 27019.4
33685.5 49847.5 31363.5
46287.4 36568.9 20563.2
46803.5 32522.5 18988.4
46607.4 36054.7 20967.6
46061.5 34254.5 23196.4
45673.6 40346.5 24953.4
46555.5 36234.5 29878.5
41459 44827.1 16320.1
42843.5 40689.5 14286.5
45673.6 40346.5 24953.4
46308.5 40937.5 33838.5
25807.7 48231.5 14976.1
22795.4 45887.5 17256.4
33501.2 49777.9 29876.6
28241.5 50094.5 34085.5
29059.9 49812.9 32754.2
23943.5 48693.4 32693.5
23193.1 45966 17056.5
19578.4 41184.5 18741.4
38514.2 48818.6 31181.8
37893.5 48857.5 37798.5
26371 47628.3 18740.2
23538.4 45392.5 20968.4
25775.1 48400.7 32810.6
21311.4 43164.5 33343.5
37676.3 48914.2 37344.4
36160.5 48362.5 45223.5
42014.9 46691.6 21414
42348.5 47124.5 27898.5
38195.8 48854.9 33523.6
43091.5 46877.5 37303.5
38953.1 48938.5 19338
41358.5 47372.5 18988.4
42649.8 40850.9 14220.2
43338.5 37719.5 12306.5
21173.1 43265.7 18196
19826.4 40937.5 17503.4
45760.3 40406 25398
45318.5 43164.5 29136.5
45113.5 43113.4 28286.5
44081.5 46134.5 30373.5
27286.1 49050.3 32784.7
25023.5 48857.5 29136.5
27977.9 49516.1 33020.7
25765.5 49599.5 34581.5
22324 43731.3 32688
19826.4 39204.5 31611.5
21696.2 43379.9 33094.4
22053.4 40937.5 35323.5
37873.7 48891.7 35892.5
32448.5 50837.5 38788.5
26606.2 49567.8 33988.4
23538.4 45392.5 37303.5
36462.7 49151.8 39906.9
34428.5 49599.5 41015.5
33324.3 50034.9 38283.8
28241.5 48857.5 40768.5
29382.8 48541.3 39973.4
26508.5 46382.5 40768.5
24658.7 45966.2 36797.1
24033.4 42669.5 39283.5
28377.5 47794.8 40507.3
27745.5 47372.5 42253.5
27985.7 47533 41589.9
27498.5 44649.5 42995.5
27546.3 44925.7 42658.2
27251.5 43164.5 42995.5
27363.5 43833.8 42867.3
27498.5 41679.5 45966.5
27447.2 42498.1 44788.8
27003.5 36482.5 44728.5
27456.6 37441 44950.7
28241.5 34749.5 45470.5
27574.5 39741.2 45732.8
27745.5 38462.5 46955.5
27841.2 36260.8 45378.7
28241.5 35739.5 46708.5
28309.6 34896.9 45508.1
29728.5 32024.5 45968.5
27893.5 38806 46770.2
29230.5 37719.5 48688.5
45996.4 36580.1 29688.5
45566.5 32769.5 34828.5
34802.2 49733.4 40660.7
33438.5 50589.5 41015.5
45336.1 33590.5 34133.7
41853.5 30542.5 40521.5
27175.7 36846.7 44812.9
24528.4 34749.5 38788.5
29189.3 33116 45793.5
30221.5 28562.5 40768.5
23922 45892.1 20748
20815.4 44649.5 23691.4
20547.8 41327.9 17614.2
20073.4 35244.5 15771.5
20596.5 40442.4 31295.1
19083.4 36729.5 26660.5
20409.4 36194 16338.2
21558.4 30294.5 16265.5
21121.8 32536.3 16293.1
21558.4 29304.5 22453.4
21544.4 30211.8 21621.7
22300.4 29552.5 28393.5
22820.9 29624.9 27682
25023.5 29057.5 33591.5
29960.4 29118.6 40921.1
30468.5 25344.5 35570.5
30167.3 25651.4 35688.9
29973.5 22127.4 29878.5
21392.5 31146.4 16276
23291.4 28809.5 12306.5
43848.8 31860.3 37074
41606.5 28314.5 37798.5
42750.1 29845.6 36978.6
41606.5 26334.5 34581.5
42676.9 31455.6 39420.2
41606.5 33017.5 43243.5
21495.4 30618.2 16269.5
23291.4 25592.5 18493.4
42166.4 30889.5 40103
39873.5 28809.5 40025.5
41742.1 26692.2 34602.1
41110.5 24602.4 32600.5
42087.3 33072.1 42574.4
42100.5 34997.5 45223.5
41174 24785.9 32756.1
40615.5 22869.4 30868.5
21553.1 29649.3 22137.4
23785.4 25839.5 24433.4
42373.8 34866.3 44722.4
43091.5 36729.5 46461.5
42759 36434.3 46199.9
42100.5 38214.5 47946.5
30329.9 27758.1 39175.1
32200.5 26087.5 38540.5
30354 25461.1 35615.5
32448.5 23364.4 34085.5
23139.1 26700.6 17428
26693.5 20943.5 16443.5
46607.4 34060.1 19586.8
45070.5 33017.5 15028.5
20119 39674.9 31491.3
21063.4 34254.5 30373.5
41908.3 47030.2 36906.6
44081.5 44154.5 41758.5
43494 44433.4 40025.6
45318.5 38957.5 41510.5
42965.1 36617.3 46362.1
43338.5 41679.5 45718.5
30665 23048.9 31496.3
34428.5 19899.4 26908.5
42221.7 46653.1 21598.4
44576.5 44402.5 24185.4
45589.5 33091.1 15635.5
45813.5 31532.5 10573.5
24821.1 35836.4 39884.7
22548.4 36234.5 35818.5
23172.2 27165.9 23065
26508.5 23117.4 20226.4
42872.5 40329.7 46185.2
40943.4 44693.4 47443.4
27323.5 48102.3 19274.3
26756.5 47619.5 19978.4
45542.7 32244.2 13872
44823.5 30047.5 12801.5
20956.7 35525.5 31634.6
21311.4 34007.5 32106.5
22886.1 35723.2 36309.2
21806.4 34749.5 34085.5
41742.9 26023.5 33719.6
42843.5 25592.5 31858.5
40899.2 44070.6 47390.5
39873.5 45392.5 47946.5
31635 49727.8 30619.1
28736.5 49352.5 29630.5
42510.9 46043.4 38091.8
45070.5 42669.5 36808.5
42425.3 25756.3 32565.7
45318.5 29552.5 30126.5
42684.6 25654.7 32127.2
43585.5 24354.4 27898.5
31042.3 51493.8 13518.6
27745.5 51084.5 12306.5
21585 45019.7 23347.1
20321.4 44897.5 26908.5
20322.4 41656.9 18844.3
19083.4 36977.5 21463.4
29185.3 49387.2 29372.6
27251.5 49104.5 28145.5
32344.2 49746.9 30337
31706.5 50342.5 33096.5
43294.6 24389.6 28204
43833.5 22622.4 22948.4
43410.8 22614.4 23882.3
41853.5 19157.4 19483.4
24639.6 35162.5 39205.1
26508.5 31037.5 38540.5
21107.9 44790.2 23560.6
19083.4 42422.5 22948.4
45478.9 33081.5 34564.5
44081.5 30294.5 34085.5
27294.1 43418.8 42946.8
25270.5 40442.5 41510.5
42754.4 40763.8 14256
44576.5 38957.5 15771.5
45634 34937.7 32848.5
45813.5 35739.5 36066.5
23680.6 26481.4 24220.6
25270.5 25592.5 27898.5
42130.5 44204.8 16436.4
43585.5 41679.5 17256.4
20766.5 45034.4 26362.7
21063.4 45639.5 29878.5
26129.4 31680.9 38284.2
26756.5 29799.5 37055.5
22130.3 41319.7 35137.4
23291.4 38957.5 38293.5
26249.9 47957.7 24196.6
26013.5 48362.5 26166.5
19618.5 37573.9 20417.5
19578.4 33759.5 20721.4
43811.3 44282.8 40961.4
41358.5 45144.5 43985.5
24142.8 28931.1 30335
26756.5 26087.5 31858.5
43926.5 45583.5 29705.7
43091.5 46382.5 29630.5
43542.2 26931.5 31392.3
44823.5 26829.5 28888.5
33580.6 54323.4 8768.51
30193.5 52443.4 10943.5
20338.6 43890.5 23327.9
19083.4 42174.5 25670.5
23323.3 29361.2 28690.1
23291.4 29552.5 30868.5
41074 47388.4 18961.7
43091.5 45639.5 18493.4
44022.6 45925.1 30119.7
44328.5 45639.5 33096.5
25841.7 26909.4 31082.8
26756.5 24849.4 30126.5
24688.8 29009.5 32354
24033.4 31532.5 34581.5
28983 48698.5 24472
31211.5 49104.5 26166.5
45702.2 35242.4 34071.3
46555.5 38709.5 35076.5
22495.3 28300.8 16328.1
24528.4 23859.4 13791.5
45057 39091.3 18749.3
45318.5 36977.5 17503.4
25903.4 48227.3 35867.9
25765.5 47867.5 38293.5
28019.2 35742.5 45427.9
27251.5 33264.5 42500.5
45346.8 41216.8 22206.7
46555.5 38462.5 22700.4
23774.9 35496.9 37881.8
23291.4 33759.5 36560.5
41393.5 47484.3 24771.8
40368.5 48362.5 26166.5
20762.6 34761.7 15934.8
21558.4 33017.5 13543.5
41682.3 32980.4 43160.5
41110.5 32769.5 45470.5
37815.5 49146.4 27572.3
36408.5 49599.5 29136.5
22609 36175.4 35934.8
21558.4 37967.5 34581.5
32974.5 50923.4 16905.1
30715.5 49847.5 17503.4
43084 46615.9 30414.1
41853.5 47867.5 33096.5
42420.2 34425 43730.3
43585.5 37224.5 44233.5
23684.2 45582.4 20884.6
21806.4 44402.5 20226.4
44958.1 29406.8 30531.6
46061.5 32027.5 30126.5
33980.8 49606.4 20462.7
35913.5 49847.5 20226.4
19553.8 42600.6 24524.7
18588.4 39947.5 24681.4
26519.3 41663.1 42685.2
26261.5 39699.5 43243.5
36719.1 49477.2 28991.2
37398.5 49352.5 32106.5
24737.3 26005.7 27078.8
24528.4 26829.5 29136.5
25572.9 48821 30517.2
23291.4 48114.5 29878.5
26193.1 35545.8 42287.3
26013.5 34254.5 41263.5
21585 45019.7 23347.1
22053.4 46629.5 26166.5
44851.4 40879.4 39922
45813.5 38709.5 39036.5
43582.9 42077.8 17197.9
44823.5 40937.5 17750.4
19630.5 37385.5 27946.6
20073.4 34254.5 26908.5
42750.1 29845.6 36978.6
43943.4 27693.5 33193.4
46281.7 39536.1 30419.6
46555.5 38709.5 31858.5
29775.3 26992.5 37468
28488.5 26829.5 36066.5
36774.8 49416.1 30517.7
35418.5 49352.5 32106.5
42676.9 31455.6 39420.2
41110.5 30789.5 41758.5
34074.5 49728 27372.9
32200.5 49599.5 28145.5
22613.6 28905.3 25118.8
23043.4 28067.5 25918.5
45932.8 34090 17778
45070.5 34997.5 16513.4
24439.8 29968.2 33200.5
22795.4 31779.5 32600.5
43703.8 45094.7 22665.6
44823.5 43659.5 22453.4
28562.5 50030.7 33931.5
28488.5 50342.5 36313.5
34425.3 49395.2 21403.5
34181.5 49352.5 23443.4
35720 49444.1 31966.2
34181.5 49847.5 35076.5
26644.2 25431.8 30565.1
28241.5 23859.4 30868.5
46086.7 40055 29041.1
46061.5 41679.5 31115.5
26736.9 26139.1 31686.8
27993.5 25097.5 32353.5
42422.8 47325.4 32365.6
42843.5 47124.5 34581.5
30780.3 23587.8 32679
32448.5 21879.4 31858.5
18966.8 40380.7 24908.2
18836.4 38462.5 25670.5
31292.2 26701.8 38605.5
31458.5 25344.5 37055.5
20890.2 45150.5 28821.2
20568.4 43659.5 31115.5
30859.4 27293.1 38990.9
31706.5 27077.5 39283.5
43665.7 28656.7 34518.2
44943.4 29193.5 33193.4
19274.9 36855.2 26798.8
19083.4 35987.5 24433.4
38442.8 49402.3 18119.4
40615.5 48857.5 17008.4
24356.8 46926.7 32678.9
22300.4 46877.5 32106.5
36725.2 50795 16182.9
36160.5 50094.5 17750.4
46197 40842.7 33574.5
46061.5 41679.5 35570.5
32441 52177.5 13332.4
31953.5 51332.5 15276.5
21756 37809.8 34598.8
21063.4 39452.5 33096.5
22946.5 45917.3 17180.4
22795.4 45392.5 18741.4
20951.3 34416.5 30462.1
20815.4 33017.5 28888.5
44435.5 44346.8 24045.7
45070.5 43412.5 25423.5
37811 48879.1 37625.9
39873.5 47867.5 38540.5
38978.4 48604.9 22344.1
39625.5 48362.5 23691.4
20951.3 34416.5 30462.1
[...]
CELL_DATA 1299
SCALARS radius float
LOOKUP_TABLE default
66.9452
77.463
72.0123
72.0123
62.2346
69.4326
46.4818
74.6879
50
64.547
48.2088
50
43.2111
48.2088
38.7315
55.7829
44.8166
51.8578
44.8166
50
40.1706
53.7845
48.2088
41.6631
33.4726
51.8578
43.2111
46.4818
37.344
37.344
32.2735
44.8166
34.7163
38.7315
32.2735
40.1706
32.2735
34.7163
28.9278
36.0062
26.8923
38.7315
28.9278
36.0062
28.9278
34.7163
30.0026
32.2735
27.8914
30.0026
28.9278
30.0026
23.2409
50
43.2111
28.9278
20.0853
46.4818
38.7315
32.2735
21.6055
24.1044
20.8316
41.6631
33.4726
31.1173
22.4083
40.1706
32.2735
21.6055
16.1367
24.1044
18.672
43.2111
37.344
30.0026
25.9289
51.8578
46.4818
46.4818
41.6631
37.344
31.1173
27.8914
23.2409
24.1044
20.8316
22.4083
20.8316
23.2409
20.0853
18.672
15.0013
17.3581
14.4639
25
20.8316
21.6055
18.0031
21.6055
19.3657
21.6055
18.0031
18.672
16.1367
19.3657
16.7363
17.3581
15.5587
16.1367
13.9457
15.0013
13.4461
14.4639
12.5
12.9644
9.68287
10.8028
9.00154
12.0522
10.8028
10.4158
9.68287
9.33599
8.06837
11.6204
10.8028
24.1044
16.7363
20.0853
19.3657
18.672
14.4639
10.4158
8.36815
8.36815
6.97286
34.7163
28.9278
34.7163
30.0026
16.7363
13.9457
31.1173
22.4083
26.8923
22.4083
25
18.672
20.0853
17.3581
7.50064
5.60208
6.0261
5.20789
25.9289
23.2409
17.3581
15.0013
15.5587
12.9644
16.1367
12.9644
25
21.6055
15.5587
14.4639
13.4461
11.6204
13.9457
12.5
12.5
12.0522
24.1044
20.0853
12.9644
11.2042
12.0522
11.2042
6.97286
6.25
5.81022
5.02132
22.4083
18.672
30.0026
26.8923
15.5587
12.9644
26.8923
19.3657
22.4083
19.3657
11.6204
10.0426
5.40139
4.50077
41.6631
34.7163
27.8914
24.1044
9.00154
6.97286
21.6055
18.0031
11.2042
9.68287
40.1706
37.344
26.8923
25.9289
14.4639
13.4461
7.50064
6.97286
12.9644
11.6204
10.0426
9.68287
27.8914
25
25
22.4083
12.5
10.8028
12.0522
9.33599
57.8555
48.2088
32.2735
26.8923
36.0062
30.0026
26.8923
25
28.9278
27.8914
9.68287
8.36815
8.67907
7.50064
8.67907
7.50064
31.1173
27.8914
17.3581
16.1367
13.9457
12.0522
44.8166
38.7315
20.8316
18.672
20.8316
18.0031
48.2088
41.6631
28.9278
25.9289
8.06837
7.50064
15.0013
12.9644
30.0026
27.8914
31.1173
26.8923
20.8316
18.672
18.672
16.1367
22.4083
20.0853
12.0522
11.2042
86.4222
83.3262
28.9278
25.9289
19.3657
17.3581
48.2088
43.2111
21.6055
19.3657
17.3581
16.1367
18.0031
16.1367
33.4726
32.2735
20.0853
18.672
23.2409
19.3657
33.4726
32.2735
20.0853
18.672
9.68287
8.67907
33.4726
32.2735
8.06837
7.50064
41.6631
37.344
30.0026
27.8914
13.4461
12.5
34.7163
30.0026
7.23194
6.72307
57.8555
51.8578
20.8316
18.672
13.4461
12.5
33.4726
30.0026
11.2042
10.4158
48.2088
44.8166
26.8923
25
12.5
11.2042
32.2735
30.0026
18.672
18.0031
21.6055
20.8316
9.68287
9.00154
31.1173
28.9278
21.6055
20.0853
43.2111
41.6631
15.5587
14.4639
15.0013
13.4461
21.6055
20.8316
6.48222
5.81022
31.1173
27.8914
15.5587
13.4461
33.4726
32.2735
21.6055
20.8316
28.9278
26.8923
17.3581
16.1367
37.344
34.7163
22.4083
20.8316
44.8166
41.6631
28.9278
25.9289
16.7363
15.0013
24.1044
22.4083
16.7363
16.1367
20.0853
18.672
5.60208
5.20789
25.9289
24.1044
6.48222
6.0261
26.8923
23.2409
6.72307
6.48222
13.9457
13.4461
14.4639
13.4461
53.7845
50
20.0853
19.3657
60.0051
57.8555
20.8316
20.0853
60.0051
53.7845
6.97286
6.48222
40.1706
37.344
13.9457
13.4461
36.0062
33.4726
23.2409
20.8316
44.8166
43.2111
13.4461
12.5
36.0062
33.4726
25.9289
24.1044
38.7315
37.344
19.3657
18.672
31.1173
28.9278
23.2409
21.6055
32.2735
28.9278
20.8316
20.0853
28.9278
25.9289
16.7363
15.0013
30.0026
28.9278
16.1367
15.5587
16.7363
16.1367
30.0026
28.9278
11.2042
10.4158
19.3657
18.672
7.77933
7.50064
26.8923
25.9289
50
48.2088
10.8028
10.4158
66.9452
64.547
23.2409
20.8316
40.1706
38.7315
18.672
17.3581
23.2409
22.4083
16.7363
16.1367
27.8914
25.9289
4.84144
4.50077
25
24.1044
55.7829
53.7845
19.3657
18.0031
33.4726
32.2735
13.9457
12.9644
25
23.2409
7.23194
6.97286
27.8914
26.8923
55.7829
53.7845
24.1044
22.4083
27.8914
26.8923
37.344
36.0062
23.2409
20.8316
30.0026
28.9278
5.40139
4.84144
19.3657
18.672
92.9635
86.4222
18.672
17.3581
31.1173
30.0026
11.2042
10.8028
20.8316
20.0853
30.0026
27.8914
7.77933
7.23194
23.2409
22.4083
44.8166
43.2111
11.6204
11.2042
32.2735
31.1173
14.4639
13.4461
34.7163
33.4726
19.3657
18.0031
17.3581
16.7363
83.3262
80.3411
20.8316
19.3657
25.9289
25
10.0426
9.68287
7.50064
7.23194
21.6055
19.3657
50
48.2088
7.23194
6.97286
31.1173
30.0026
10.4158
10.0426
33.4726
31.1173
20.8316
20.0853
20.0853
18.672
55.7829
53.7845
8.06837
7.23194
27.8914
26.8923
17.3581
15.5587
32.2735
31.1173
50
48.2088
19.3657
18.672
31.1173
28.9278
13.9457
12.9644
18.0031
17.3581
33.4726
32.2735
9.33599
8.67907
22.4083
21.6055
44.8166
41.6631
18.0031
17.3581
32.2735
31.1173
48.2088
46.4818
19.3657
18.672
46.4818
44.8166
16.1367
15.5587
23.2409
22.4083
8.36815
7.50064
25.9289
25
48.2088
46.4818
20.0853
19.3657
26.8923
25.9289
43.2111
41.6631
13.4461
12.5
20.8316
19.3657
20.8316
20.0853
18.0031
17.3581
34.7163
33.4726
10.4158
9.68287
28.9278
27.8914
43.2111
40.1706
15.5587
15.0013
24.1044
23.2409
36.0062
34.7163
15.0013
13.9457
21.6055
20.8316
53.7845
51.8578
19.3657
18.672
46.4818
44.8166
16.1367
15.5587
27.8914
26.8923
46.4818
44.8166
13.9457
12.9644
15.0013
13.9457
38.7315
36.0062
20.0853
19.3657
20.8316
19.3657
46.4818
44.8166
12.5
12.0522
6.72307
6.25
31.1173
30.0026
12.9644
12.5
21.6055
20.0853
37.344
36.0062
20.0853
19.3657
16.7363
16.1367
40.1706
38.7315
20.0853
19.3657
18.0031
17.3581
32.2735
31.1173
6.25
5.81022
18.0031
17.3581
28.9278
27.8914
41.6631
40.1706
10.8028
10.4158
25
24.1044
25.9289
25
72.0123
66.9452
20.0853
19.3657
26.8923
25.9289
46.4818
44.8166
13.4461
12.9644
22.4083
21.6055
33.4726
32.2735
20.0853
19.3657
24.1044
23.2409
25.9289
25
89.6332
86.4222
19.3657
18.672
23.2409
22.4083
25.9289
24.1044
51.8578
50
14.4639
13.4461
24.1044
23.2409
33.4726
32.2735
11.6204
11.2042
23.2409
22.4083
25.9289
25
48.2088
46.4818
6.0261
5.60208
13.9457
13.4461
32.2735
31.1173
38.7315
37.344
89.6332
86.4222
9.00154
8.67907
20.0853
19.3657
25
24.1044
37.344
36.0062
7.77933
7.50064
12.9644
12.5
24.1044
23.2409
20.0853
19.3657
43.2111
41.6631
16.1367
15.5587
18.0031
17.3581
22.4083
21.6055
26.8923
25.9289
69.4326
66.9452
13.9457
13.4461
12.9644
12.5
6.48222
6.25
37.344
36.0062
51.8578
50
16.7363
15.5587
16.1367
15.5587
40.1706
38.7315
46.4818
44.8166
9.33599
9.00154
11.6204
11.2042
13.9457
13.4461
30.0026
28.9278
32.2735
31.1173
43.2111
41.6631
50
48.2088
9.00154
8.67907
10.8028
10.4158
23.2409
22.4083
20.8316
20.0853
31.1173
30.0026
37.344
36.0062
16.1367
15.5587
22.4083
21.6055
24.1044
23.2409
19.3657
18.672
30.0026
28.9278
46.4818
44.8166
9.00154
8.67907
8.67907
8.36815
7.77933
7.50064
15.5587
15.0013
16.7363
16.1367
20.0853
19.3657
24.1044
23.2409
11.6204
11.2042
7.77933
7.50064
15.5587
15.0013
24.1044
23.2409
16.7363
16.1367
10.0426
9.68287
14.4639
13.9457
8.06837
7.77933
20.8316
20.0853
18.672
18.0031
20.8316
20.0853
16.7363
16.1367
13.9457
13.4461
22.4083
21.6055
15.0013
14.4639
12.9644
12.5
15.0013
14.4639
15.0013
14.4639
18.0031
17.3581
12.0522
11.6204
19.3657
18.0031
8.36815
8.06837
14.4639
13.9457
13.4461
12.9644
8.36815
8.06837
12.0522
11.6204
18.672
18.0031
11.6204
11.2042
12.9644
12.5
12.5
12.0522
10.0426
9.33599
5.02132
4.84144
15.5587
15.0013
10.8028
10.4158
10.0426
9.68287
5.20789
5.02132
5.20789
5.02132
9.00154
8.67907
6.25
6.0261
5.40139
5.20789
10.4158
10.0426
62.2346
60.0051
66.9452
64.547
80.3411
74.6879
66.9452
64.547
57.8555
55.7829
53.7845
51.8578
74.6879
72.0123
48.2088
46.4818
44.8166
43.2111
43.2111
41.6631
44.8166
43.2111
50
48.2088
19.3657
18.672
41.6631
40.1706
38.7315
37.344
38.7315
37.344
43.2111
41.6631
34.7163
33.4726
37.344
36.0062
36.0062
34.7163
34.7163
33.4726
34.7163
33.4726
30.0026
28.9278
33.4726
32.2735
11.2042
10.4158
31.1173
30.0026
28.9278
27.8914
26.8923
25
27.8914
26.8923
33.4726
32.2735
33.4726
32.2735
26.8923
25.9289
25.9289
25
31.1173
30.0026
34.7163
33.4726
27.8914
26.8923
25
24.1044
28.9278
27.8914
22.4083
21.6055
25.9289
25
28.9278
27.8914
26.8923
25.9289
27.8914
26.8923
20.0853
19.3657
30.0026
28.9278
20.8316
20.0853
25.9289
25
22.4083
21.6055
22.4083
21.6055
24.1044
23.2409
41.6631
40.1706
38.7315
37.344
36.0062
34.7163
25.9289
25
28.9278
27.8914
28.9278
27.8914
13.9457
13.4461
19.3657
18.672
14.4639
13.9457
16.1367
15.5587
15.0013
14.4639
21.6055
20.8316
21.6055
20.8316
18.672
18.0031
21.6055
20.8316
7.50064
7.23194
20.8316
20.0853
20.0853
19.3657
20.0853
19.3657
13.4461
12.9644
19.3657
18.672
7.77933
7.50064
7.77933
7.50064
18.672
18.0031
20.8316
20.0853
10.0426
9.33599
9.68287
9.33599
13.4461
12.9644
9.68287
9.33599
4.668
4.50077
5.02132
4.84144
4.668
4.50077
5.81022
5.60208
7.23194
6.97286
5.60208
5.40139
5.81022
5.60208
8.06837
7.77933
18.672
18.0031
10.8028
10.4158
23.2409
22.4083
21.6055
20.8316
5.20789
5.02132
69.4326
66.9452
51.8578
50
53.7845
51.8578
36.0062
34.7163
38.7315
37.344
40.1706
38.7315
25
24.1044
30.0026
28.9278
28.9278
27.8914
22.4083
21.6055
22.4083
21.6055
11.2042
10.8028
20.0853
19.3657
55.7829
53.7845
51.8578
50
32.2735
31.1173
27.8914
26.8923
18.0031
17.3581
16.1367
15.5587
20.8316
20.0853
62.2346
60.0051
44.8166
43.2111
30.0026
28.9278
30.0026
28.9278
18.0031
17.3581
16.7363
16.1367
20.0853
19.3657
69.4326
66.9452
34.7163
33.4726
25.9289
25
9.33599
9.00154
21.6055
20.8316
53.7845
51.8578
41.6631
40.1706
25
24.1044
7.77933
7.50064
43.2111
41.6631
25
24.1044
25
24.1044
14.4639
13.9457
40.1706
38.7315
22.4083
21.6055
10.8028
10.4158
40.1706
38.7315
23.2409
22.4083
14.4639
13.9457
38.7315
37.344
16.7363
16.1367
22.4083
21.6055
26.8923
25.9289
20.8316
20.0853
27.8914
26.8923
19.3657
18.672
25
24.1044
60.0051
57.8555
23.2409
22.4083
62.2346
60.0051
21.6055
20.8316
64.547
62.2346
9.33599
9.00154
14.4639
13.9457
64.547
62.2346
18.0031
17.3581
6.72307
6.48222
10.0426
9.68287
13.4461
12.9644
6.25
6.0261
8.67907
8.36815
11.6204
11.2042
6.0261
5.81022
55.7829
53.7845
57.8555
55.7829
96.4176
92.9635
100
96.4176
38.7315
37.344
44.8166
43.2111
36.0062
34.7163
34.7163
33.4726
31.1173
30.0026
43.2111
41.6631
27.8914
26.8923
15.0013
14.4639
23.2409
22.4083
77.463
74.6879
33.4726
32.2735
27.8914
26.8923
23.2409
22.4083
36.0062
34.7163
