# vtk DataFile Version 3.0
Tree
ASCII
DATASET POLYDATA
POINTS 1300 float
34443.5 55443.5 6443.45
33438.5 52817.5 12801.5
33820.4 53815.4 10385.4
37151.5 52322.5 13543.5
33761.1 53047.4 12423
34181.5 52569.5 14038.5
34021.8 52751.1 13424.6
29726.5 49847.5 17256.4
31358.7 50950.9 15800.3
25270.5 48857.5 14038.5
36460 52275.1 13349.1
38636.5 49104.5 18245.4
33561.1 52904.9 12657.7
29230.5 51827.5 11563.5
32370.7 51635 14897.6
33191.5 49847.5 19730.4
29812.7 49921.8 16954.7
26261.5 47619.5 18741.4
38463.7 49694.5 16497.1
42843.5 45392.5 17998.4
26775.7 49145.5 14826
24280.4 46877.5 16265.5
32523 50334.5 18212.2
30221.5 48362.5 22700.4
38679.9 49172.4 18118.7
39378.5 48114.5 21711.4
33234.6 49913.9 19511
35170.5 49104.5 21958.4
39051.3 48538.7 21261.1
38388.5 49104.5 25423.5
30979.7 49374.5 20662
28983.5 48857.5 25670.5
42135 45798.9 18349.6
45318.5 41927.5 20968.4
43914.9 43176.4 19495.8
45070.5 38957.5 18493.4
38049.8 48965.2 23910.9
33933.5 49847.5 27403.5
29308.5 48878.5 23116.2
24033.4 47124.5 25670.5
44671.9 42356.6 20875.7
45813.5 40442.5 25670.5
38259.8 49051.6 24848.7
39130.5 48609.5 31611.5
44908.6 39983.6 19225.3
46803.5 35739.5 21215.4
35010.2 49609.3 27014.9
33685.5 49847.5 31363.5
46140.3 36774.6 20207.1
46803.5 32522.5 18988.4
45564.6 40722.9 25485.2
46555.5 38709.5 31858.5
42574.3 45546.9 18131.9
42843.5 40689.5 14286.5
33493 49779.6 29874.7
28241.5 50094.5 34085.5
29337.8 49648.1 32416.8
22943.5 47693.4 32693.5
24634.1 47151.5 16316.2
20568.4 43164.5 20226.4
24918.3 47604.9 32757
21063.4 42174.5 33838.5
39254.2 48275.7 21540.3
43091.5 46134.5 22453.4
39449.9 48486.4 30374.5
43091.5 46877.5 35818.5
42279.3 46334.7 22646.2
44576.5 44402.5 24185.4
39251.9 48562.7 31141.4
37893.5 48857.5 37798.5
41129.8 47072.3 22225.9
42843.5 46877.5 26908.5
46030.7 38522.2 30997.3
45813.5 35739.5 36066.5
22026 44767.8 19342.9
20815.4 44649.5 23691.4
45896 36796.9 34140.2
44823.5 30542.5 34085.5
42973.3 40850.8 14570.1
43338.5 37719.5 12306.5
21122.3 43773.8 19890.7
19826.4 40937.5 17503.4
27658.4 48871.7 32546.1
25023.5 48857.5 29136.5
39176.6 48591.7 31432.9
37398.5 49352.5 32106.5
28366.3 49833.3 33437.4
25765.5 49599.5 34581.5
21950.6 43080.6 32868.8
19826.4 39204.5 31611.5
21400.5 42518.8 33470
22053.4 40937.5 35323.5
25959.5 48086.3 32676.8
23538.4 45392.5 37303.5
37358 48970.9 36569
34428.5 49599.5 41015.5
24451.8 45492.1 36377.4
24033.4 42669.5 39283.5
44748.5 32419.6 34624.5
41606.5 28314.5 37798.5
42992.1 30391.6 36814.9
41853.5 30542.5 40521.5
44502.1 30957 34091.7
42843.5 25592.5 31858.5
36034.7 49156 39484.7
36903.5 48362.5 43738.5
43293.2 28375.2 33692.9
41606.5 26334.5 34581.5
42126.4 30848.3 39901.8
41606.5 33017.5 43243.5
41957.2 30658.7 40286
39873.5 28809.5 40025.5
42006.3 33046.5 42838.7
42100.5 34997.5 45223.5
42653 25962.6 32215.2
40615.5 22869.4 30868.5
41190 23570.9 30750.7
39625.5 20147.4 26660.5
39862.4 20761 27018.6
39130.5 19404.4 24433.4
42347.8 34858.1 44807
43091.5 36729.5 46461.5
24225.8 43967.9 37946.7
27498.5 44649.5 42995.5
41758.4 33028.5 43089.7
41110.5 32769.5 45470.5
26707.5 43882.7 41935.2
27251.5 43164.5 42995.5
42752 36432.1 46222.7
42100.5 38214.5 47946.5
27052.2 43265.4 42955.5
27498.5 41679.5 45966.5
27293.2 42409 44581.5
27003.5 36482.5 44728.5
27419.7 37419.6 44901
28241.5 34749.5 45470.5
27410.9 39711.1 45051.2
27745.5 38462.5 46955.5
27822.4 36249.9 45353.4
28241.5 35739.5 46708.5
28303 34893.1 45499.2
29728.5 32024.5 45968.5
27863.1 38695.6 46684
29230.5 37719.5 48688.5
40473.1 22053.6 28735.4
43833.5 22622.4 22948.4
21980.6 40959.1 34873
23538.4 36234.5 37798.5
23533.6 36782.5 37112.5
26508.5 31037.5 38540.5
42348.1 37537.2 47291.5
41693.4 43943.4 47443.4
45009 39347.4 18771.5
45070.5 34502.5 16018.5
45157.9 35394.8 15999.5
45813.5 31532.5 10573.5
40745.6 47693 18225.7
41358.5 47372.5 18988.4
27252.4 48172 18658.9
26756.5 47619.5 19978.4
45155.1 32337.9 13516.9
44823.5 30047.5 12801.5
36537.5 49085.7 38376.8
32448.5 50837.5 38788.5
22025.7 40945.7 35152.3
22795.4 41927.5 37055.5
34665.3 49734.8 40525.7
33438.5 50589.5 41015.5
25215.5 44282.9 39418.6
26508.5 46382.5 40768.5
26441.1 45987.8 40752.3
27745.5 47372.5 42253.5
25902.9 31974.9 37598.6
27745.5 27819.5 36808.5
27576.9 29363.8 37390.7
32200.5 26087.5 38540.5
30443.5 27332.5 38103.6
32448.5 23364.4 34085.5
20629.8 42696 18983.5
19083.4 36977.5 21463.4
19624.7 38944.3 21323
19826.4 35492.5 25670.5
19307.4 37458 21622.2
19330.4 35492.5 22948.4
19945.1 36251.2 25155.1
21063.4 34254.5 30373.5
42177.4 46930.7 35076.2
43585.5 44154.5 41015.5
43335.3 44398.6 39006
45318.5 38957.5 41510.5
19871.5 35780.8 25474.6
21311.4 29552.5 23691.4
42111.3 21892.7 24951.7
41853.5 19157.4 19483.4
21018.5 34329.6 28685.7
23538.4 29799.5 31363.5
22697.3 31158.5 29726.9
26013.5 24107.4 26908.5
31872.4 24089.3 34408.2
32200.5 20889.4 28641.5
45376.7 38764.2 19598.4
46555.5 38462.5 22700.4
24329.2 47129.7 25819.9
20568.4 45639.5 28393.5
19168.5 37160.1 21523.7
20568.4 33759.5 15771.5
46356.1 38638.3 31531.2
46061.5 41679.5 35570.5
20440.5 34852.8 16320.4
21311.4 34749.5 12801.5
20353 35521 26496.7
20073.4 37224.5 29383.5
20277 35921.8 28205.9
20321.4 35492.5 30126.5
41366.1 20145.8 22152.8
40863.5 19652.4 21711.4
41736.5 19048 19846.9
41853.5 17919.4 18493.4
23956.1 28020.4 28199.6
23785.4 25839.5 24433.4
24737.9 26533.5 27709
26756.5 24849.4 30126.5
20519.8 34175 15980.1
22053.4 29552.5 15523.5
22047.6 29784.3 15600.5
23785.4 24602.4 13543.5
24143.4 26081.8 24965.2
26013.5 23364.4 20968.4
25750.4 23550.6 21319.7
27745.5 20147.4 16513.4
24145.8 47126.5 25727.3
24033.4 46382.5 22700.4
45866.5 39220.4 27890.9
46555.5 35492.5 28888.5
44624.2 30799.5 34089.4
45318.5 28314.5 29383.5
27161.6 36838.6 44794
26508.5 33759.5 41758.5
45323.9 41471.2 24613.1
45566.5 42917.5 28145.5
20440.9 35781 29854.9
21311.4 36234.5 34085.5
28895.5 28429.4 37718.6
30221.5 28562.5 40768.5
20077.9 41100.4 17729.7
20073.4 38709.5 16265.5
21977.7 45760.6 27113.5
19330.4 41184.5 28393.5
26482.9 46232.5 40762.4
27498.5 49352.5 38788.5
24289.3 42916 39020.4
25270.5 40442.5 41510.5
20856.4 43191.8 19400.8
21063.4 43659.5 16513.4
33672.1 49818.3 31243.1
34181.5 49847.5 35076.5
42771.1 25733.1 31994
43585.5 24354.4 27898.5
29107 48865.5 24699.9
31211.5 49104.5 26166.5
20203 41889.8 18614.8
19578.4 41184.5 18741.4
42609.9 26423.6 32668.1
41110.5 24602.4 32600.5
20254 33643 24431.6
19826.4 32522.5 21463.4
44099.2 42009.7 40649
43833.5 40937.5 44480.5
45047.1 39105.7 18599.1
44576.5 38957.5 15771.5
46300.3 36013.9 28792.5
46061.5 32027.5 30126.5
23519.2 30062.5 31233.5
25023.5 29057.5 33591.5
28942.6 48861.6 25522
28241.5 48857.5 28145.5
21356.9 31674.4 15371.8
21806.4 29799.5 12801.5
43126.1 44437.1 40245.7
41358.5 45144.5 43985.5
34067.7 49729.4 27371.4
32200.5 49599.5 28145.5
44757.6 40361.5 41114.2
45813.5 38709.5 39036.5
32745.6 21380.2 29540.3
34428.5 19899.4 26908.5
22078.4 30122.3 13485.4
23291.4 28809.5 12306.5
42848 46508.5 26131
44328.5 45392.5 28145.5
41649.3 20809.6 23216.4
43338.5 21384.4 20226.4
25750.4 23550.6 21319.7
25270.5 22622.4 15523.5
39176.6 48591.7 31432.9
35913.5 49352.5 29630.5
45413.5 34770.3 34717.8
45318.5 33264.5 37055.5
31550.3 22889.8 31971.6
29973.5 22127.4 29878.5
21275.4 44694.5 22039
19083.4 42422.5 22948.4
22059.4 32363.5 29331.2
22795.4 31779.5 32600.5
26895.3 47778.3 19863.1
26508.5 47372.5 22453.4
41305.8 47418.9 32777.3
44328.5 45639.5 33096.5
22965.4 31850.5 32370.6
24033.4 31532.5 34581.5
23921.8 46283.9 22941.9
23538.4 45392.5 20968.4
31352.1 49801.9 31626.8
31706.5 50342.5 33096.5
30516.3 25858.9 36091.6
29478.5 24849.4 34085.5
31352.1 49801.9 31626.8
28488.5 49599.5 30373.5
21404 30049 23591.6
22548.4 27819.5 22700.4
20803.2 44492.1 23320.8
19578.4 43412.5 25175.5
20712.5 32203.8 24447.7
21311.4 30294.5 26166.5
36857 51045.2 15337
36160.5 50094.5 17750.4
19480.9 38163 23460
18836.4 38462.5 25670.5
27347.3 41168 44797.5
26261.5 39699.5 43243.5
39439.2 48562.8 28440.3
42348.5 47619.5 30373.5
42374.3 34410.4 43880.3
43585.5 37224.5 44233.5
37895.6 48987.3 30079.8
37398.5 49352.5 28145.5
22050.7 29659.1 15558.9
22300.4 27819.5 17256.4
22371.7 28004.4 16971.3
23291.4 25592.5 18493.4
34578.5 49357.8 21574.8
34675.5 49352.5 23938.4
45570.3 42353.7 27607.5
46061.5 41679.5 31115.5
21346.6 29741.2 23653.5
22300.4 28314.5 25175.5
46430.5 36336.7 20909.1
46555.5 36234.5 22700.4
26650.8 35326.1 42994.5
25518.5 35492.5 41263.5
19981.1 40420.8 20024.8
19083.4 37967.5 19235.4
25426.8 26085.6 28804
25765.5 26582.5 30868.5
25492.4 48757.3 30161
23291.4 48114.5 29878.5
41758.4 33028.5 43089.7
40121.5 31779.5 43491.5
20810.8 44589.7 23550.6
21063.4 45392.5 25423.5
22720.3 39396.3 36368.2
23291.4 38957.5 38293.5
45146.8 41673.2 22842.2
46061.5 40194.5 23443.4
46149.5 37215.7 28868.8
46555.5 34749.5 32106.5
29550.8 25156.7 34384.7
27993.5 25097.5 32353.5
19535.5 38459.9 22648
18588.4 39947.5 24681.4
26596.7 34730.8 42524.8
27745.5 32769.5 42995.5
19178.6 38559.6 25476.3
19083.4 38957.5 27155.5
26746.8 24967.8 29911.1
28241.5 23859.4 30868.5
21356.4 45597.4 28052.6
21063.4 44897.5 30621.5
28748.6 33752 45448.7
28736.5 32274.5 44233.5
34245.7 49768 33700.1
35913.5 49352.5 34828.5
31958.9 52393.8 12555.6
30468.5 51332.5 14038.5
38862.3 48644.9 33123.1
40121.5 48362.5 34828.5
29903.3 28738.3 40452.3
30221.5 29304.5 42253.5
20962.5 34314.1 14698.3
21558.4 33017.5 13543.5
34134.6 52558.2 13933.3
34428.5 51827.5 15523.5
20809.1 43658.2 28541.3
20073.4 42174.5 31115.5
28236.9 49988.9 14640.1
26756.5 50094.5 13048.5
43138.4 45250.6 37461.5
44823.5 44154.5 37798.5
30471 51822.1 12455.5
28983.5 50837.5 13048.5
45947.2 37452.5 32945.9
46555.5 38709.5 35076.5
28488.7 49125.6 17524
26756.5 48609.5 16760.4
28288.9 49995.2 33839.2
27251.5 49847.5 36066.5
33745.3 49702.6 20295.2
35913.5 49847.5 20226.4
23275.7 45037.8 33233.7
22300.4 43164.5 35818.5
34156.9 54694.6 8256.77
32193.5 53193.4 8693.45
37854.7 48785.8 37177
39873.5 47867.5 38540.5
26400.4 47674.3 18747.1
24776.4 46629.5 18988.4
21111 36354.7 33012.7
21558.4 37967.5 34581.5
38861.3 48629.2 22316.8
[...]
CELL_DATA 1299
SCALARS radius float
LOOKUP_TABLE default
66.9452
80.3411
74.6879
74.6879
66.9452
72.0123
53.7845
60.0051
50
77.463
55.7829
72.0123
57.8555
66.9452
55.7829
55.7829
44.8166
60.0051
44.8166
51.8578
43.2111
62.2346
51.8578
57.8555
48.2088
57.8555
48.2088
51.8578
40.1706
53.7845
43.2111
50
40.1706
44.8166
34.7163
44.8166
37.344
51.8578
41.6631
41.6631
32.2735
43.2111
33.4726
40.1706
31.1173
40.1706
32.2735
33.4726
31.1173
33.4726
24.1044
46.4818
37.344
36.0062
26.8923
30.0026
23.2409
46.4818
34.7163
25.9289
20.0853
50
41.6631
37.344
27.8914
43.2111
37.344
36.0062
26.8923
46.4818
41.6631
25.9289
23.2409
38.7315
28.9278
24.1044
16.7363
38.7315
34.7163
37.344
31.1173
28.9278
26.8923
34.7163
32.2735
28.9278
25.9289
22.4083
18.672
20.8316
18.0031
27.8914
25
30.0026
23.2409
25.9289
22.4083
20.0853
16.1367
17.3581
13.4461
18.672
13.4461
25
21.6055
16.7363
16.1367
15.5587
12.5
14.4639
13.4461
13.9457
12.5
14.4639
12.9644
13.4461
12.0522
12.5
12.0522
12.9644
11.6204
25
19.3657
13.4461
12.5
22.4083
19.3657
12.0522
10.8028
20.0853
17.3581
18.672
14.4639
15.5587
13.4461
17.3581
15.5587
14.4639
13.4461
13.9457
12.0522
16.7363
15.5587
12.9644
11.2042
19.3657
15.0013
16.1367
12.9644
11.6204
10.4158
37.344
32.2735
33.4726
27.8914
51.8578
50
48.2088
43.2111
31.1173
30.0026
27.8914
24.1044
18.672
18.0031
24.1044
23.2409
23.2409
20.8316
22.4083
20.8316
13.9457
11.6204
12.9644
10.4158
11.2042
8.36815
34.7163
25.9289
30.0026
23.2409
28.9278
27.8914
25.9289
21.6055
28.9278
21.6055
25
21.6055
25
19.3657
11.6204
9.68287
23.2409
17.3581
19.3657
15.5587
9.00154
7.23194
37.344
36.0062
44.8166
37.344
27.8914
24.1044
25
23.2409
25.9289
24.1044
24.1044
22.4083
23.2409
21.6055
10.4158
10.0426
10.0426
9.68287
17.3581
15.5587
16.1367
14.4639
25
20.0853
21.6055
18.672
16.7363
13.9457
15.0013
12.5
43.2111
37.344
28.9278
24.1044
18.0031
16.1367
15.0013
12.0522
34.7163
27.8914
22.4083
20.0853
12.0522
10.8028
32.2735
28.9278
40.1706
36.0062
21.6055
19.3657
23.2409
20.0853
36.0062
33.4726
33.4726
28.9278
13.9457
12.5
46.4818
44.8166
33.4726
31.1173
15.0013
13.9457
24.1044
22.4083
24.1044
21.6055
36.0062
31.1173
25
23.2409
18.0031
17.3581
44.8166
40.1706
23.2409
20.8316
23.2409
20.8316
38.7315
37.344
23.2409
20.8316
7.50064
6.72307
21.6055
20.8316
44.8166
43.2111
11.2042
9.68287
14.4639
12.9644
33.4726
27.8914
23.2409
20.8316
8.67907
8.06837
32.2735
30.0026
20.0853
18.0031
46.4818
38.7315
32.2735
27.8914
18.672
18.0031
38.7315
37.344
33.4726
30.0026
10.0426
8.67907
32.2735
27.8914
20.8316
19.3657
31.1173
27.8914
23.2409
20.8316
66.9452
62.2346
27.8914
25
18.0031
16.1367
40.1706
37.344
13.4461
12.5
31.1173
28.9278
20.8316
19.3657
20.0853
19.3657
50
46.4818
31.1173
28.9278
20.0853
18.672
32.2735
30.0026
13.4461
12.9644
32.2735
28.9278
15.5587
14.4639
27.8914
26.8923
12.9644
12.0522
30.0026
27.8914
18.0031
16.1367
37.344
36.0062
25.9289
20.8316
9.33599
9.00154
28.9278
27.8914
12.9644
12.0522
25.9289
25
15.0013
13.4461
38.7315
34.7163
12.5
11.6204
30.0026
27.8914
64.547
60.0051
34.7163
33.4726
11.6204
10.8028
25
24.1044
69.4326
64.547
38.7315
34.7163
53.7845
51.8578
25.9289
24.1044
60.0051
53.7845
25
23.2409
51.8578
50
27.8914
23.2409
51.8578
48.2088
24.1044
21.6055
89.6332
86.4222
28.9278
25.9289
46.4818
44.8166
21.6055
20.8316
50
48.2088
27.8914
25
40.1706
37.344
20.8316
20.0853
46.4818
43.2111
25
22.4083
41.6631
37.344
18.672
18.0031
40.1706
37.344
16.7363
15.5587
43.2111
41.6631
16.7363
15.0013
38.7315
36.0062
15.0013
13.9457
30.0026
28.9278
23.2409
21.6055
30.0026
27.8914
16.7363
15.5587
28.9278
26.8923
16.1367
15.5587
31.1173
28.9278
15.5587
15.0013
41.6631
40.1706
26.8923
25.9289
48.2088
46.4818
23.2409
22.4083
46.4818
38.7315
20.0853
19.3657
28.9278
27.8914
15.0013
14.4639
30.0026
28.9278
7.23194
6.72307
26.8923
25
15.5587
13.9457
26.8923
25.9289
62.2346
60.0051
20.0853
19.3657
53.7845
51.8578
25
23.2409
55.7829
53.7845
31.1173
30.0026
48.2088
44.8166
21.6055
20.0853
41.6631
40.1706
22.4083
20.8316
27.8914
25.9289
15.0013
14.4639
26.8923
24.1044
86.4222
83.3262
20.8316
20.0853
33.4726
31.1173
23.2409
21.6055
28.9278
27.8914
12.0522
10.8028
37.344
34.7163
44.8166
43.2111
23.2409
22.4083
41.6631
40.1706
22.4083
21.6055
34.7163
33.4726
20.8316
20.0853
28.9278
26.8923
10.8028
10.0426
25
24.1044
22.4083
21.6055
48.2088
44.8166
21.6055
20.0853
30.0026
28.9278
13.9457
13.4461
26.8923
24.1044
43.2111
41.6631
12.5
12.0522
24.1044
23.2409
48.2088
44.8166
13.9457
12.9644
37.344
36.0062
26.8923
25.9289
26.8923
25.9289
41.6631
40.1706
18.672
18.0031
25
24.1044
30.0026
28.9278
20.0853
19.3657
32.2735
31.1173
44.8166
43.2111
19.3657
18.672
36.0062
34.7163
44.8166
43.2111
19.3657
18.0031
26.8923
25.9289
16.1367
15.0013
53.7845
51.8578
20.8316
19.3657
34.7163
33.4726
16.1367
15.0013
31.1173
28.9278
34.7163
33.4726
13.9457
12.9644
25
24.1044
32.2735
31.1173
13.4461
12.5
25
24.1044
36.0062
34.7163
14.4639
13.4461
23.2409
22.4083
36.0062
34.7163
8.06837
7.50064
28.9278
27.8914
38.7315
37.344
8.36815
8.06837
24.1044
23.2409
34.7163
33.4726
20.8316
20.0853
25.9289
25
37.344
36.0062
11.2042
10.8028
22.4083
21.6055
30.0026
28.9278
57.8555
55.7829
24.1044
23.2409
41.6631
40.1706
16.1367
15.5587
17.3581
16.7363
31.1173
30.0026
17.3581
16.7363
22.4083
20.8316
43.2111
41.6631
10.8028
10.0426
22.4083
21.6055
28.9278
27.8914
92.9635
86.4222
22.4083
20.8316
30.0026
28.9278
26.8923
25.9289
21.6055
20.8316
30.0026
28.9278
72.0123
69.4326
16.1367
15.5587
31.1173
30.0026
32.2735
31.1173
13.9457
13.4461
19.3657
18.672
13.9457
12.9644
28.9278
27.8914
13.4461
12.9644
18.672
18.0031
26.8923
25.9289
74.6879
69.4326
14.4639
13.4461
25
24.1044
43.2111
41.6631
16.7363
16.1367
24.1044
23.2409
32.2735
31.1173
12.9644
12.5
22.4083
21.6055
33.4726
32.2735
11.2042
10.8028
17.3581
16.7363
27.8914
26.8923
43.2111
40.1706
12.5
12.0522
20.8316
20.0853
21.6055
20.8316
36.0062
34.7163
18.0031
17.3581
22.4083
20.8316
27.8914
26.8923
28.9278
27.8914
57.8555
55.7829
12.0522
11.2042
22.4083
21.6055
27.8914
26.8923
26.8923
25.9289
53.7845
51.8578
16.7363
16.1367
24.1044
23.2409
38.7315
37.344
17.3581
16.7363
26.8923
25.9289
36.0062
34.7163
44.8166
43.2111
21.6055
20.8316
22.4083
21.6055
36.0062
34.7163
40.1706
38.7315
13.4461
12.5
19.3657
18.672
26.8923
25.9289
32.2735
31.1173
55.7829
53.7845
19.3657
18.672
21.6055
20.8316
33.4726
32.2735
60.0051
57.8555
12.9644
12.5
25.9289
25
22.4083
20.8316
18.0031
16.7363
17.3581
16.7363
10.4158
10.0426
21.6055
20.8316
20.0853
19.3657
16.1367
15.5587
24.1044
22.4083
12.9644
12.5
10.8028
10.4158
20.0853
19.3657
18.672
18.0031
24.1044
23.2409
20.0853
18.672
13.9457
13.4461
13.4461
12.9644
15.5587
15.0013
21.6055
20.8316
24.1044
23.2409
12.9644
12.5
13.9457
13.4461
21.6055
20.8316
14.4639
13.9457
12.5
12.0522
15.0013
14.4639
12.5
12.0522
21.6055
20.8316
16.1367
15.5587
13.4461
12.9644
18.672
18.0031
11.2042
10.8028
12.5
12.0522
16.7363
16.1367
15.5587
15.0013
16.7363
16.1367
15.5587
15.0013
14.4639
13.9457
14.4639
13.9457
18.0031
17.3581
11.6204
11.2042
13.9457
13.4461
7.77933
7.50064
12.0522
11.6204
8.36815
8.06837
17.3581
16.7363
8.67907
8.36815
10.4158
10.0426
13.4461
12.9644
9.33599
9.00154
14.4639
13.9457
9.68287
9.33599
66.9452
62.2346
64.547
62.2346
55.7829
53.7845
64.547
62.2346
62.2346
60.0051
57.8555
55.7829
55.7829
53.7845
62.2346
60.0051
64.547
62.2346
69.4326
66.9452
83.3262
77.463
77.463
74.6879
89.6332
86.4222
66.9452
64.547
69.4326
66.9452
50
48.2088
50
48.2088
55.7829
53.7845
48.2088
46.4818
41.6631
40.1706
44.8166
43.2111
48.2088
46.4818
48.2088
46.4818
44.8166
41.6631
43.2111
41.6631
38.7315
37.344
46.4818
44.8166
32.2735
31.1173
41.6631
40.1706
40.1706
38.7315
40.1706
38.7315
36.0062
34.7163
40.1706
38.7315
40.1706
38.7315
34.7163
33.4726
43.2111
41.6631
36.0062
34.7163
33.4726
32.2735
37.344
36.0062
38.7315
37.344
32.2735
31.1173
28.9278
27.8914
43.2111
41.6631
34.7163
33.4726
31.1173
30.0026
30.0026
28.9278
34.7163
33.4726
31.1173
30.0026
36.0062
34.7163
30.0026
28.9278
27.8914
26.8923
27.8914
26.8923
32.2735
31.1173
34.7163
33.4726
37.344
36.0062
25.9289
25
23.2409
22.4083
33.4726
32.2735
25.9289
25
24.1044
23.2409
21.6055
20.8316
20.0853
19.3657
16.1367
15.5587
46.4818
44.8166
38.7315
37.344
38.7315
37.344
41.6631
40.1706
43.2111
41.6631
38.7315
36.0062
40.1706
38.7315
28.9278
27.8914
37.344
36.0062
41.6631
40.1706
31.1173
30.0026
27.8914
26.8923
25.9289
25
30.0026
28.9278
26.8923
25.9289
21.6055
20.8316
25.9289
25
10.0426
9.68287
24.1044
23.2409
20.8316
20.0853
21.6055
20.8316
22.4083
21.6055
16.1367
15.5587
21.6055
20.8316
22.4083
21.6055
22.4083
21.6055
14.4639
13.9457
21.6055
20.8316
13.9457
13.4461
10.4158
10.0426
13.4461
12.9644
13.4461
12.9644
6.97286
6.72307
7.77933
7.50064
6.97286
6.72307
12.9644
12.5
11.2042
10.8028
10.8028
10.4158
9.00154
8.67907
11.2042
10.8028
12.9644
12.5
15.5587
15.0013
19.3657
18.672
15.0013
14.4639
18.0031
17.3581
12.5
12.0522
12.9644
12.5
69.4326
66.9452
72.0123
69.4326
44.8166
43.2111
43.2111
41.6631
38.7315
37.344
38.7315
37.344
32.2735
31.1173
30.0026
28.9278
31.1173
30.0026
24.1044
23.2409
32.2735
31.1173
25
24.1044
21.6055
20.8316
25.9289
25
16.1367
15.5587
22.4083
21.6055
10.4158
10.0426
62.2346
60.0051
41.6631
40.1706
20.8316
20.0853
15.5587
15.0013
60.0051
57.8555
55.7829
53.7845
44.8166
43.2111
26.8923
25.9289
17.3581
16.7363
19.3657
18.672
96.4176
92.9635
41.6631
40.1706
41.6631
40.1706
31.1173
30.0026
26.8923
25.9289
16.7363
16.1367
46.4818
44.8166
31.1173
30.0026
11.6204
11.2042
50
48.2088
24.1044
23.2409
22.4083
21.6055
12.5
12.0522
50
48.2088
31.1173
30.0026
13.4461
12.9644
64.547
62.2346
36.0062
34.7163
19.3657
18.672
69.4326
66.9452
33.4726
32.2735
23.2409
22.4083
46.4818
44.8166
20.8316
20.0853
14.4639
13.9457
37.344
36.0062
21.6055
20.8316
57.8555
55.7829
22.4083
21.6055
43.2111
41.6631
21.6055
20.8316
50
48.2088
22.4083
21.6055
48.2088
46.4818
9.68287
9.33599
31.1173
30.0026
10.8028
10.4158
30.0026
28.9278
15.0013
14.4639
24.1044
23.2409
37.344
36.0062
11.6204
11.2042
20.8316
20.0853
30.0026
28.9278
53.7845
51.8578
21.6055
20.8316
25
24.1044
32.2735
31.1173
20.8316
20.0853
24.1044
23.2409
100
96.4176
23.2409
22.4083
13.9457
13.4461
64.547
62.2346
57.8555
55.7829
80.3411
77.463
