# vtk DataFile Version 3.0
Tree
ASCII
DATASET POLYDATA
POINTS 1300 float
34443.5 55443.5 6443.45
33438.5 52817.5 12801.5
33820.4 53815.4 10385.4
37151.5 52322.5 13543.5
33691.7 52978.3 12457.8
34428.5 51827.5 15523.5
36737.1 52240.5 13175.9
40615.5 48857.5 17008.4
34089.6 52356.9 14113.3
29726.5 49847.5 17256.4
34089.6 52356.9 14113.3
26756.5 50094.5 13048.5
32431.6 51403.3 15307.7
33191.5 49847.5 19730.4
28424.5 50324.3 13613.2
24528.4 47372.5 15028.5
28424.5 50324.3 13613.2
26261.5 47619.5 18741.4
39949.5 49181.8 15973.6
43338.5 44649.5 17008.4
40362.4 48980.7 16615.2
40368.5 48362.5 20226.4
32544.3 50253.4 18355.8
30221.5 48362.5 22700.4
39950.1 48766.9 19089.4
37398.5 49352.5 23196.4
30987.1 49346.1 20712.3
28983.5 48857.5 25670.5
38368.1 49130 21635.7
40615.5 47867.5 26413.5
42700.7 45492.1 17283.4
45318.5 41927.5 20968.4
44323.7 43282.1 19568.1
45070.5 38957.5 18493.4
29312.3 48864.1 23141.8
24033.4 47124.5 25670.5
44880.5 42410.4 20912.5
45813.5 40442.5 25670.5
39621 48413.2 25469
39130.5 48609.5 31611.5
45051.7 40020.6 19250.6
46803.5 35739.5 21215.4
46190.4 36787.5 20215.9
46803.5 32522.5 18988.4
38941.1 48616.1 31378.3
37893.5 48857.5 37798.5
43096.1 44969.7 17112.9
42843.5 40689.5 14286.5
37812.9 48849.4 37407.2
36903.5 48362.5 43738.5
26221.8 47899.4 17564.7
21806.4 44402.5 20226.4
33242 49885.6 19561.2
35170.5 49104.5 21958.4
43042.7 40885.1 14410.4
43338.5 37719.5 12306.5
22686.6 44896.1 19299.8
19578.4 41184.5 18741.4
37547 49027.4 35008.1
32448.5 50837.5 38788.5
36528.2 49120.7 39937
34428.5 49599.5 41015.5
33913.3 49920.6 36781.9
27251.5 49847.5 36066.5
28447.1 49565.7 35787.4
22943.5 47693.4 32693.5
22140.9 44590.1 19874.3
19578.4 43412.5 25175.5
37862.9 48854.4 37649.8
42843.5 45639.5 40025.5
42700.7 45492.1 17283.4
43585.5 45639.5 22948.4
43408.3 37961.3 12938.9
44823.5 30047.5 12801.5
33005.1 50489.1 38026
28241.5 48114.5 41758.5
40548.6 47843 26098.7
44328.5 45392.5 28145.5
40390.6 48697.9 17615.5
41358.5 47372.5 18988.4
20422.4 42912.4 24565.6
19330.4 41184.5 28393.5
40950.9 46861.2 39122.7
45070.5 44154.5 35323.5
19816.6 41234.9 27192.3
20073.4 37224.5 29383.5
28899.5 48199.4 40585.5
26508.5 46382.5 40768.5
36367.8 48900.6 43242
36160.5 48362.5 45223.5
27417.1 47072.9 40699
27498.5 44649.5 42995.5
27465.9 44787.3 42908.8
27498.5 41679.5 45966.5
27557.2 41773.2 45264.9
27745.5 38462.5 46955.5
27824.1 38759.5 46345.4
28241.5 35739.5 46708.5
28337 36034.8 46506.9
29728.5 32024.5 45968.5
27775.4 38575.4 46723.6
29230.5 37719.5 48688.5
28790.6 37776.6 47966.1
29726.5 35987.5 48440.5
45665.5 40384.7 24975
46555.5 36234.5 29878.5
45993.8 36592.4 29695.4
45566.5 32769.5 34828.5
28101.1 37288.2 46432.6
26508.5 33759.5 41758.5
37468.9 49291.4 23114.3
34923.5 49599.5 27403.5
25116.1 47829.8 34184.2
21558.4 42917.5 33838.5
45335.4 33593.8 34135.6
41853.5 30542.5 40521.5
36239.3 48567 44470.5
40943.4 44693.4 47443.4
29037.7 48928.6 25542.2
28736.5 49352.5 29630.5
22519 43550.8 34035.9
21558.4 37967.5 34581.5
39701.6 45523.3 45988.1
43833.5 40937.5 44480.5
45478.7 33082.7 34565.2
43943.4 27693.5 33193.4
45757.2 40420.5 25406.2
46061.5 41927.5 29878.5
42404.6 42514.9 43679.8
45813.5 38709.5 39036.5
35391.4 49570.3 27139.8
33685.5 49847.5 31363.5
33540.8 49919.6 30835
31706.5 50342.5 33096.5
19934.7 39390.1 28200.3
19826.4 35492.5 25670.5
26381.9 48489.5 34793.4
23538.4 45392.5 37303.5
24239.3 45419.2 36880.5
23785.4 43907.5 37551.5
21858.4 38406.5 34311.7
21806.4 34749.5 34085.5
34823.2 49723.5 40670.4
33438.5 50589.5 41015.5
41944.1 43487.4 44172.7
44328.5 43659.5 42748.5
43848.5 31861.7 37074.8
41606.5 28314.5 37798.5
43926.7 28374 33030.6
42843.5 25592.5 31858.5
43937 27952.1 33131.5
41606.5 26334.5 34581.5
42676.8 31456.3 39420.5
41606.5 33017.5 43243.5
42166.3 30889.7 40103.1
39873.5 28809.5 40025.5
42087.3 33072.3 42574.5
42100.5 34997.5 45223.5
42824 25962.3 32036.4
40615.5 22869.4 30868.5
41249.9 23570.8 30688.1
39625.5 20147.4 26660.5
39876.8 20761 27003.5
39130.5 19404.4 24433.4
42373.8 34866.4 44722.5
43091.5 36729.5 46461.5
42759 36434.4 46199.9
42100.5 38214.5 47946.5
27344.1 36291.9 44585.5
25765.5 36977.5 42253.5
27043.6 34091.5 42574.8
28241.5 29799.5 40521.5
20077.5 35804.1 25781.6
20568.4 31037.5 22453.4
20574.5 32116.6 22555
21558.4 29552.5 16760.4
40508.4 22053.5 28698.5
43833.5 22622.4 22948.4
42126.5 21892.7 24935.8
41853.5 19157.4 19483.4
22001.9 35663.7 33663.1
23043.4 30047.5 30373.5
26320.1 47695.1 18596.9
26756.5 47619.5 19978.4
20335.3 41860.2 18338.7
19826.4 40937.5 17503.4
38672.4 48773.6 30163.9
37398.5 49352.5 32106.5
23805.7 44159.4 37247.2
22795.4 41927.5 37055.5
42191.5 20357.2 21391.7
43585.5 20889.4 19483.4
41798.9 20651.2 22615.4
40863.5 19652.4 21711.4
41978.6 19081.4 19773.7
41853.5 17919.4 18493.4
21604.5 29621.1 18117.2
23785.4 25097.5 15276.5
23198.7 31458.8 31732.8
26756.5 26087.5 31858.5
40116.8 21252.1 27647.6
34428.5 19899.4 26908.5
36590 20413.4 27189.4
32448.5 21879.4 31858.5
33428.1 22003.4 31256.1
31458.5 25592.5 36560.5
23603.7 25737.3 16206.9
26693.5 20943.5 16443.5
23721.8 25252.1 15359.5
23785.4 24602.4 13543.5
45059.4 39030.3 18663
45070.5 34997.5 16513.4
19866 41441.3 18588.4
19083.4 36977.5 19483.4
21616.6 29622.1 16898.1
21806.4 29799.5 12801.5
20570.7 31447.6 22492
22300.4 28314.5 25175.5
21643.1 29505.1 24155.8
24528.4 25097.5 22206.4
27648.9 31093.8 40651
27003.5 28314.5 36313.5
39184.6 48579 27628.7
42348.5 47619.5 30373.5
19380.8 38673.7 19143.3
20073.4 35244.5 15771.5
22456.7 34065.8 32929.5
20815.4 33017.5 28888.5
26711.8 33885.6 42068.7
23785.4 34749.5 38293.5
26567.3 47751.7 23625.1
24033.4 46382.5 22700.4
19899.1 43222.5 24943.7
20568.4 45639.5 28393.5
34986.1 49621.7 27290.1
33933.5 49847.5 27403.5
20595.6 45125.5 27462.1
22053.4 46629.5 28393.5
28349.7 48033.6 41511.1
27745.5 47372.5 42253.5
23148.8 27039.9 23863
23785.4 25839.5 24433.4
24531 25320 22314.6
26508.5 23117.4 20226.4
23772.7 26209.2 24489
26013.5 24107.4 26908.5
28222.2 36393.8 46329.8
28241.5 34749.5 45470.5
44930.4 39927.2 39413.6
46555.5 38709.5 35076.5
44595.4 29805.8 32987.8
44823.5 26829.5 28888.5
23793.1 44003.2 37435.9
24776.4 41184.5 40768.5
45056.5 39406.6 18886.3
44576.5 38957.5 15771.5
20323 35444 15956.9
21311.4 34749.5 12801.5
23183.7 42188.8 37226.6
23043.4 38214.5 37798.5
21959 46415 28171.5
25023.5 48857.5 29136.5
27394.2 44881.5 42402.7
27251.5 43164.5 42995.5
26452.2 26501.5 31302.5
28488.5 23364.4 30621.5
44536.1 32990.5 12468.4
46308.5 31284.5 10078.5
43425.2 41144.8 42328.2
44823.5 37719.5 42253.5
34525.2 51812.5 15228.9
36160.5 50094.5 17750.4
45326.9 41310.8 22259.7
46555.5 38462.5 22700.4
46342 36370.5 29808.9
46061.5 32027.5 30126.5
24913.7 34135.4 39303
24528.4 32522.5 36066.5
33580.6 54323.4 8768.51
30193.5 52443.4 10943.5
41935.5 47503.4 30269.1
43585.5 46382.5 32353.5
44403.9 27088.9 29923.1
43585.5 24354.4 27898.5
29142.1 48904.1 24630
31211.5 49104.5 26166.5
23275.3 47477.1 28188.1
24033.4 48114.5 27403.5
20126.3 37298.3 29257.8
20321.4 35492.5 30126.5
27086.9 29744.2 37883
26756.5 29799.5 37055.5
20578.7 45444.2 28039.6
21063.4 44402.5 31115.5
22971.6 30619.6 30542.2
22053.4 29799.5 27403.5
23979.5 46014.4 18163.6
21063.4 43659.5 16513.4
21761.4 40549.1 33583.9
20568.4 38709.5 32106.5
41682.3 32980.5 43160.6
40121.5 32522.5 45470.5
42807 46169 26884.3
45070.5 43412.5 25423.5
45632.7 34943.7 32851.8
45813.5 35739.5 36066.5
24351.9 28972.8 30902.5
24528.4 26829.5 29136.5
24087.1 47136.4 25318.5
22053.4 46629.5 26166.5
28099 47591.1 40646.8
25765.5 47867.5 38293.5
27522.5 42918.6 44369.6
26261.5 39699.5 43243.5
45067.3 35335.4 16513.1
45070.5 33017.5 15028.5
44292.1 39021.1 42281.9
43585.5 37224.5 44233.5
24474.9 46717.5 23088.8
22300.4 46134.5 23691.4
45527.5 39843.8 37704.5
46061.5 41679.5 35570.5
27035.2 28857.8 36909.9
25023.5 29057.5 33591.5
20079.8 41022.3 17689.3
20073.4 38709.5 16265.5
42676.8 31456.3 39420.5
40615.5 31284.5 42500.5
41181.3 47844.8 29952
41853.5 47867.5 33096.5
27015.5 28520.9 36540.1
28488.5 26829.5 36066.5
33630.5 49874.9 31162.7
35418.5 49352.5 32106.5
23746 25005.2 14669.4
24776.4 23117.4 14286.5
23984.6 47875.1 27567.7
26013.5 48362.5 26166.5
29270 48980.1 40227.3
28241.5 48857.5 40768.5
46277.9 39015.7 35335.5
46555.5 38709.5 31858.5
26128.6 33692.9 40897.5
26013.5 32027.5 39036.5
20495.9 43327.4 22150.6
19083.4 42422.5 22948.4
24076.4 34742.5 38404.2
23043.4 36234.5 36560.5
31849.5 23661.7 33321.4
29478.5 24849.4 34085.5
32550.3 50148 32056.2
30221.5 50094.5 31611.5
24362.6 27614.4 29512
23785.4 27077.5 27403.5
46052.7 40538.3 28015.8
46308.5 39947.5 29383.5
24945.9 25219.1 26006.7
25270.5 25592.5 27898.5
45916.8 40484.1 26815.4
45566.5 42917.5 28145.5
34804.2 20107.5 26880.5
32943.5 20394.4 26166.5
19439.7 39578.1 19204.6
18588.4 38214.5 20968.4
30755.2 24002.1 33441.8
29973.5 23859.4 33096.5
28043.2 30286.4 40344.9
28983.5 28562.5 38788.5
30342.9 50181 31753.8
27993.5 50342.5 31611.5
27910.6 27726.9 36516
29726.5 27077.5 37551.5
19621.5 42465.1 22848
18588.4 39947.5 24681.4
35121.8 20909.4 28490.7
32200.5 20889.4 28641.5
43874 45150.7 35958.1
44328.5 45392.5 34333.5
28845.2 34104.8 45930.9
28488.5 32274.5 43738.5
41969.4 47654 32757.6
42843.5 47124.5 34581.5
32858.4 21173 28870.2
31211.5 21879.4 29630.5
18905.8 40135.9 24518.3
18836.4 38462.5 25670.5
28166.1 29984.5 40454.4
30221.5 28562.5 40768.5
41897.5 47786.4 32967.7
40121.5 48362.5 34828.5
29173.3 29391.6 40816.2
30221.5 29304.5 42253.5
19233 37158.3 19460.9
19578.4 34997.5 19978.4
40718.8 44738.9 46934
42443.4 42943.4 47443.4
45909.2 40933.1 36074.9
46308.5 40937.5 33838.5
36994 52291.3 13403.8
36903.5 51084.5 15771.5
20863.2 44441.1 30319.7
20568.4 42669.5 31363.5
40362.4 48980.7 16615.2
38636.5 49104.5 18245.4
29285.6 49868.4 35549.6
26756.5 50342.5 34085.5
37209.7 51262.9 15290.7
37893.5 50342.5 16760.4
40796.4 48143.6 34121.4
41110.5 47619.5 36066.5
39189.8 48831.7 20551.4
39378.5 48114.5 21711.4
21612 29621.7 17361.4
21063.4 32522.5 15771.5
33974.9 49588.8 20472.1
35913.5 49847.5 20226.4
19364.2 36337.2 19657.5
19330.4 35492.5 22948.4
[...]
CELL_DATA 1299
SCALARS radius float
LOOKUP_TABLE default
69.4326
80.3411
72.0123
74.6879
60.0051
77.463
64.547
69.4326
50
66.9452
51.8578
60.0051
48.2088
53.7845
41.6631
51.8578
41.6631
69.4326
57.8555
66.9452
55.7829
55.7829
46.4818
60.0051
50
48.2088
38.7315
53.7845
43.2111
64.547
53.7845
60.0051
46.4818
46.4818
38.7315
55.7829
41.6631
48.2088
33.4726
53.7845
44.8166
48.2088
44.8166
36.0062
27.8914
62.2346
53.7845
30.0026
24.1044
46.4818
33.4726
50
41.6631
55.7829
50
36.0062
28.9278
31.1173
24.1044
26.8923
24.1044
26.8923
20.0853
21.6055
16.1367
34.7163
23.2409
28.9278
22.4083
62.2346
48.2088
51.8578
46.4818
25
18.672
44.8166
38.7315
62.2346
60.0051
27.8914
25
25
21.6055
25.9289
22.4083
20.0853
18.0031
25
22.4083
18.672
15.5587
16.1367
12.9644
13.4461
11.6204
12.5
10.4158
10.8028
8.67907
12.0522
11.2042
11.6204
10.8028
46.4818
36.0062
40.1706
30.0026
11.6204
9.33599
51.8578
41.6631
18.672
15.0013
33.4726
25
23.2409
19.3657
40.1706
34.7163
16.7363
13.9457
20.8316
17.3581
31.1173
23.2409
43.2111
32.2735
18.672
16.1367
44.8166
37.344
40.1706
36.0062
24.1044
20.0853
19.3657
18.0031
18.672
16.1367
14.4639
12.9644
25
24.1044
19.3657
18.672
30.0026
26.8923
25.9289
23.2409
24.1044
22.4083
27.8914
22.4083
26.8923
25
24.1044
22.4083
24.1044
20.8316
21.6055
18.672
19.3657
18.672
23.2409
20.8316
21.6055
20.0853
10.4158
9.33599
10.0426
8.67907
20.8316
18.0031
20.0853
16.7363
20.8316
18.0031
18.672
15.5587
13.4461
10.8028
43.2111
38.7315
31.1173
27.8914
37.344
36.0062
17.3581
16.1367
16.7363
15.5587
18.0031
16.7363
16.1367
15.5587
19.3657
16.1367
12.0522
9.33599
20.0853
18.0031
19.3657
15.5587
16.1367
12.5
17.3581
14.4639
16.7363
15.5587
48.2088
40.1706
30.0026
23.2409
17.3581
15.0013
18.672
15.5587
16.7363
13.9457
9.68287
7.77933
41.6631
36.0062
25.9289
23.2409
12.9644
10.8028
9.68287
7.50064
41.6631
37.344
25
21.6055
43.2111
40.1706
23.2409
21.6055
19.3657
18.672
15.5587
14.4639
14.4639
12.5
15.0013
13.9457
11.2042
10.4158
17.3581
15.0013
26.8923
25
16.7363
13.4461
50
43.2111
24.1044
22.4083
16.7363
15.5587
22.4083
19.3657
16.7363
16.1367
10.0426
8.67907
48.2088
43.2111
18.0031
15.5587
64.547
60.0051
51.8578
50
37.344
33.4726
8.36815
7.50064
86.4222
83.3262
37.344
34.7163
25.9289
22.4083
41.6631
40.1706
20.0853
18.0031
23.2409
21.6055
8.67907
8.36815
22.4083
18.0031
11.2042
9.68287
41.6631
38.7315
15.5587
13.9457
23.2409
21.6055
40.1706
36.0062
34.7163
33.4726
10.8028
10.0426
40.1706
38.7315
19.3657
17.3581
14.4639
13.4461
43.2111
41.6631
16.1367
15.0013
38.7315
36.0062
16.7363
15.0013
8.36815
8.06837
30.0026
28.9278
26.8923
23.2409
40.1706
36.0062
8.06837
7.50064
38.7315
34.7163
16.1367
15.0013
18.672
16.7363
20.8316
20.0853
15.5587
15.0013
9.00154
8.36815
28.9278
26.8923
7.77933
6.97286
15.0013
13.4461
37.344
33.4726
10.4158
10.0426
34.7163
31.1173
14.4639
13.9457
37.344
33.4726
18.672
17.3581
26.8923
25.9289
14.4639
13.9457
9.33599
9.00154
34.7163
33.4726
7.77933
6.97286
27.8914
25.9289
18.0031
16.7363
22.4083
20.8316
9.68287
8.67907
38.7315
36.0062
17.3581
16.1367
26.8923
25.9289
9.00154
7.77933
37.344
32.2735
8.67907
8.06837
24.1044
21.6055
20.0853
18.672
15.5587
15.0013
74.6879
66.9452
20.0853
17.3581
64.547
62.2346
22.4083
20.8316
69.4326
66.9452
34.7163
33.4726
55.7829
51.8578
18.672
17.3581
44.8166
41.6631
23.2409
20.0853
8.36815
7.77933
16.1367
15.0013
43.2111
41.6631
15.5587
14.4639
51.8578
50
18.0031
17.3581
41.6631
36.0062
32.2735
27.8914
43.2111
40.1706
34.7163
32.2735
60.0051
55.7829
24.1044
22.4083
53.7845
50
21.6055
20.8316
57.8555
55.7829
18.0031
16.7363
57.8555
51.8578
28.9278
25.9289
38.7315
37.344
28.9278
25.9289
48.2088
46.4818
18.0031
16.7363
38.7315
36.0062
17.3581
16.1367
44.8166
41.6631
22.4083
20.8316
46.4818
44.8166
25.9289
24.1044
41.6631
40.1706
15.0013
13.9457
33.4726
32.2735
18.0031
16.7363
37.344
34.7163
8.06837
7.50064
46.4818
41.6631
7.77933
7.50064
41.6631
38.7315
11.2042
10.0426
46.4818
43.2111
9.68287
9.33599
20.8316
20.0853
9.68287
9.33599
33.4726
32.2735
53.7845
50
38.7315
37.344
20.0853
18.672
23.2409
22.4083
92.9635
86.4222
21.6055
20.8316
44.8166
43.2111
10.0426
9.33599
44.8166
43.2111
15.0013
13.9457
28.9278
27.8914
57.8555
51.8578
18.0031
16.7363
48.2088
46.4818
18.672
18.0031
57.8555
55.7829
33.4726
32.2735
46.4818
43.2111
20.0853
19.3657
36.0062
34.7163
16.7363
16.1367
27.8914
25.9289
44.8166
43.2111
9.00154
8.36815
18.0031
17.3581
55.7829
53.7845
15.0013
13.9457
55.7829
53.7845
9.00154
8.67907
37.344
36.0062
66.9452
62.2346
16.1367
15.0013
43.2111
40.1706
24.1044
22.4083
20.8316
20.0853
51.8578
50
22.4083
20.8316
40.1706
38.7315
18.0031
17.3581
44.8166
43.2111
13.4461
12.9644
20.8316
20.0853
31.1173
30.0026
18.0031
17.3581
21.6055
20.8316
43.2111
40.1706
20.0853
18.0031
13.9457
13.4461
36.0062
34.7163
53.7845
51.8578
25.9289
25
37.344
36.0062
26.8923
25.9289
44.8166
43.2111
12.9644
12.5
16.1367
15.5587
32.2735
31.1173
62.2346
57.8555
23.2409
22.4083
43.2111
41.6631
51.8578
50
30.0026
28.9278
21.6055
20.8316
25
24.1044
16.7363
15.5587
34.7163
33.4726
50
48.2088
16.7363
16.1367
27.8914
25.9289
55.7829
53.7845
31.1173
28.9278
25
24.1044
74.6879
72.0123
23.2409
22.4083
50
48.2088
72.0123
69.4326
16.1367
15.0013
40.1706
38.7315
89.6332
86.4222
11.6204
11.2042
24.1044
22.4083
89.6332
83.3262
9.68287
9.33599
25.9289
25
86.4222
83.3262
22.4083
21.6055
11.2042
10.8028
48.2088
46.4818
13.9457
13.4461
33.4726
32.2735
51.8578
50
17.3581
16.7363
36.0062
34.7163
46.4818
44.8166
16.1367
15.5587
21.6055
20.8316
48.2088
46.4818
28.9278
27.8914
32.2735
31.1173
66.9452
64.547
27.8914
26.8923
26.8923
25.9289
53.7845
51.8578
25
23.2409
21.6055
20.8316
44.8166
43.2111
16.1367
15.5587
25
24.1044
51.8578
50
17.3581
16.7363
21.6055
20.8316
37.344
36.0062
18.0031
17.3581
16.7363
16.1367
44.8166
43.2111
13.9457
13.4461
38.7315
37.344
43.2111
41.6631
23.2409
21.6055
22.4083
20.8316
50
48.2088
62.2346
60.0051
19.3657
18.0031
37.344
36.0062
34.7163
33.4726
10.4158
9.68287
23.2409
22.4083
28.9278
27.8914
51.8578
50
22.4083
21.6055
36.0062
32.2735
40.1706
38.7315
64.547
62.2346
15.5587
15.0013
15.5587
15.0013
26.8923
25.9289
40.1706
38.7315
10.0426
9.68287
33.4726
32.2735
50
48.2088
53.7845
51.8578
24.1044
23.2409
17.3581
16.7363
36.0062
34.7163
43.2111
41.6631
9.33599
9.00154
23.2409
21.6055
40.1706
38.7315
44.8166
43.2111
16.1367
15.5587
19.3657
18.672
18.672
18.0031
43.2111
41.6631
41.6631
40.1706
16.1367
15.5587
30.0026
28.9278
36.0062
34.7163
57.8555
55.7829
60.0051
57.8555
32.2735
31.1173
23.2409
22.4083
37.344
34.7163
50
48.2088
17.3581
16.7363
18.0031
17.3581
37.344
34.7163
53.7845
51.8578
43.2111
41.6631
10.8028
10.4158
12.0522
11.6204
21.6055
20.8316
46.4818
44.8166
36.0062
34.7163
38.7315
37.344
33.4726
32.2735
44.8166
43.2111
14.4639
13.9457
14.4639
13.9457
19.3657
18.672
44.8166
43.2111
43.2111
41.6631
34.7163
33.4726
20.8316
20.0853
17.3581
16.7363
21.6055
20.8316
17.3581
16.7363
25
24.1044
36.0062
34.7163
16.1367
15.5587
15.0013
14.4639
16.1367
15.5587
20.8316
20.0853
22.4083
21.6055
24.1044
23.2409
18.0031
17.3581
27.8914
26.8923
16.7363
16.1367
28.9278
27.8914
16.1367
15.5587
15.5587
15.0013
30.0026
28.9278
13.9457
13.4461
23.2409
22.4083
46.4818
44.8166
22.4083
21.6055
18.672
18.0031
18.672
17.3581
7.23194
6.97286
28.9278
27.8914
16.1367
15.5587
25
24.1044
11.6204
11.2042
12.5
12.0522
7.50064
7.23194
25
24.1044
10.4158
10.0426
7.77933
7.23194
15.5587
15.0013
25.9289
25
25
24.1044
25.9289
25
15.0013
14.4639
24.1044
23.2409
23.2409
22.4083
15.5587
15.0013
20.8316
20.0853
10.4158
10.0426
17.3581
16.7363
12.9644
12.5
13.9457
12.9644
15.5587
15.0013
13.9457
13.4461
9.33599
9.00154
10.8028
10.4158
10.8028
10.4158
7.23194
6.97286
13.9457
13.4461
15.5587
14.4639
10.0426
9.68287
12.9644
12.5
10.4158
10.0426
12.0522
11.6204
27.8914
26.8923
53.7845
51.8578
72.0123
69.4326
57.8555
55.7829
60.0051
55.7829
62.2346
60.0051
57.8555
55.7829
83.3262
77.463
64.547
62.2346
57.8555
55.7829
72.0123
69.4326
64.547
62.2346
77.463
74.6879
48.2088
46.4818
50
48.2088
57.8555
55.7829
57.8555
55.7829
60.0051
57.8555
50
48.2088
53.7845
50
51.8578
50
46.4818
44.8166
53.7845
51.8578
41.6631
40.1706
46.4818
44.8166
51.8578
50
41.6631
40.1706
17.3581
16.7363
36.0062
34.7163
38.7315
36.0062
34.7163
33.4726
37.344
36.0062
44.8166
43.2111
44.8166
43.2111
19.3657
18.672
14.4639
13.9457
24.1044
23.2409
25.9289
25
15.5587
15.0013
12.5
12.0522
15.5587
15.0013
26.8923
25.9289
24.1044
23.2409
18.672
18.0031
14.4639
13.9457
7.50064
7.23194
19.3657
18.672
25.9289
25
18.0031
17.3581
22.4083
21.6055
11.2042
10.8028
22.4083
21.6055
22.4083
21.6055
8.67907
8.36815
13.4461
12.9644
8.67907
8.36815
21.6055
20.8316
9.68287
9.33599
18.672
18.0031
18.0031
17.3581
8.06837
7.77933
8.06837
7.77933
15.0013
14.4639
8.36815
8.06837
14.4639
13.9457
48.2088
46.4818
28.9278
27.8914
19.3657
18.672
33.4726
32.2735
30.0026
28.9278
17.3581
16.7363
27.8914
26.8923
26.8923
25.9289
11.2042
10.8028
25.9289
25
24.1044
23.2409
17.3581
16.7363
10.0426
9.68287
9.33599
9.00154
55.7829
53.7845
40.1706
38.7315
51.8578
50
38.7315
37.344
33.4726
32.2735
34.7163
33.4726
25.9289
25
16.7363
16.1367
8.67907
8.36815
55.7829
53.7845
50
48.2088
26.8923
25.9289
15.0013
14.4639
21.6055
20.8316
62.2346
60.0051
44.8166
43.2111
36.0062
34.7163
25.9289
25
14.4639
13.9457
40.1706
38.7315
41.6631
40.1706
27.8914
26.8923
15.0013
14.4639
40.1706
38.7315
23.2409
22.4083
16.7363
16.1367
50
48.2088
18.0031
17.3581
23.2409
22.4083
9.33599
9.00154
36.0062
34.7163
25
24.1044
43.2111
41.6631
19.3657
18.672
18.672
18.0031
19.3657
18.672
24.1044
23.2409
27.8914
26.8923
72.0123
69.4326
25
24.1044
8.06837
7.77933
22.4083
21.6055
11.6204
11.2042
36.0062
34.7163
15.5587
15.0013
38.7315
37.344
100
96.4176
31.1173
30.0026
13.4461
12.9644
23.2409
22.4083
30.0026
28.9278
7.50064
7.23194
10.8028
10.4158
17.3581
16.7363
57.8555
55.7829
51.8578
50
16.7363
16.1367
96.4176
92.9635
60.0051
57.8555
38.7315
37.344
37.344
36.0062
55.7829
53.7845
43.2111
41.6631
37.344
36.0062
38.7315
37.344
41.6631
40.1706
32.2735
31.1173
46.4818
44.8166
26.8923
25.9289
9.00154
8.67907
41.6631
40.1706
17.3581
16.7363
32.2735
31.1173
80.3411
77.463
9.00154
8.67907
41.6631
40.1706
9.33599
9.00154
