# vtk DataFile Version 3.0
Tree
ASCII
DATASET POLYDATA
POINTS 800 float
0 0.0287941 0.0287941
0.00675 0.00925 0.026432
0.0018725 0.0148075 0.0275903
-0.0035 -0.02225 0.026101
-0.00575295 -0.0160333 0.0260325
-0.00925 -0.02306 0.0255
0.000671478 0.00463998 0.0268071
0.008 0.001661 0.025
0.000563675 0.0200798 0.027649
-0.002795 0.0175 0.025
-0.000157513 -0.00649465 0.0259832
0.005053 -0.0115 0.02475
-0.00911142 -0.0186904 0.0255963
-0.01475 -0.0195 0.024931
0.00589909 0.00392728 0.0252091
0.008058 0.005 0.02425
-0.00269893 0.0183219 0.0259006
-0.00725 0.01675 0.024432
0.0028808 -0.0110312 0.0249346
0.00325 -0.015546 0.024
0.00133732 -0.000361736 0.0260951
0.0075 -0.00325 0.023781
-0.00649366 0.0164959 0.024711
-0.00975 0.014046 0.02375
0.00147985 0.0163892 0.0276079
0.00305 0.01425 0.0235
0.00580872 0.0102338 0.025819
0.007569 0.008 0.02325
-0.00905797 0.0141171 0.0239338
-0.011 0.0115 0.023308
0.00264185 -0.014892 0.0240191
0.0015 -0.01837 0.023
-0.0119908 -0.0179914 0.0247097
-0.014562 -0.0155 0.023
-0.00377118 -0.0193433 0.0251927
-0.00125 -0.02075 0.022955
-0.00505413 -0.0120601 0.0255815
-0.01475 -0.0115 0.022934
-0.0031575 -0.0201047 0.0242116
-0.00425 -0.022069 0.0225
-0.0102196 0.0120759 0.023514
-0.0125 0.00608 0.0225
0.00477509 -0.00335469 0.024278
0.006572 -0.00775 0.02225
-0.00939348 -0.0208243 0.0246362
-0.01 -0.022566 0.02225
0.000871232 0.00313947 0.0265935
-0.01375 -0.00175 0.022418
0.0044399 0.0120119 0.0259043
0.005872 0.0115 0.022
-0.0103711 -0.0214315 0.0233254
-0.012365 -0.0215 0.022
0.00699854 0.00254927 0.0246666
0.0085 -0.00025 0.021857
0.00151233 0.015787 0.0249818
0.00025 0.016072 0.02175
-0.00997604 0.00106179 0.0230143
-0.012075 0.0025 0.02175
0.00598808 -0.00480025 0.0230134
0.007567 -0.00475 0.0215
-0.00383735 0.0177741 0.0255437
-0.004 0.01755 0.0215
-0.0122404 -0.00165988 0.0223995
-0.01375 -0.005445 0.0215
0.00386898 -0.0111534 0.0243825
0.00575 -0.011 0.021347
-0.01113 -4.44781e-06 0.0225521
-0.012558 0.00025 0.02125
0.00302386 -0.0127739 0.0240633
0.0045 -0.013827 0.021
-0.0120447 -0.0211281 0.0222066
-0.0135 -0.02025 0.021223
0.00265378 0.0146479 0.0236336
0.004064 0.01325 0.02075
-0.00672056 0.0165721 0.0246273
-0.0075 0.016363 0.02075
-0.0126324 -0.0105676 0.0225727
-0.014556 -0.009 0.02075
0.00232809 -0.0161943 0.0227892
0.0025 -0.016562 0.0205
-0.0112654 0.00248472 0.0219057
-0.012182 0.0045 0.0205
0.00698612 0.0041921 0.0242661
0.0095 0.00375 0.020323
0.00211857 -0.0166084 0.0218156
0.0005 -0.018443 0.02025
-0.0128257 -0.00176683 0.0221036
-0.01351 -0.00225 0.02025
0.00287917 0.0142892 0.0219241
0.00225 0.014565 0.02
-0.00940645 0.0135047 0.0238078
-0.00975 0.013545 0.02
-0.0134093 -0.0171159 0.0229806
-0.014853 -0.017 0.02
0.000342959 0.0159955 0.0219656
-0.0005 0.016043 0.01975
-0.0113227 0.00908597 0.0221356
-0.011553 0.00825 0.01975
0.00836845 0.00469684 0.0216698
0.00905 0.0065 0.0195
0.000517429 -0.0180211 0.0206662
-0.00175 -0.019557 0.0195
-0.0135277 -0.00476197 0.0211735
-0.01425 -0.00625 0.019563
0.00577012 0.0111447 0.0227917
0.007554 0.0095 0.01925
-0.00360542 -0.0206917 0.0230548
-0.00425 -0.020509 0.01925
-0.0144481 -0.0164771 0.0207438
-0.015057 -0.015 0.01925
-0.000692813 0.0160858 0.020249
-0.002152 0.01625 0.019
-0.0120059 0.000315587 0.0215009
-0.013 0.0015 0.019043
0.0061023 -0.00317177 0.0233741
0.009 -0.00225 0.01878
-0.00401795 0.0173378 0.022024
-0.00425 0.016536 0.01875
-0.0137538 -0.0171561 0.0216055
-0.013273 -0.019 0.01875
0.00682237 -0.00495063 0.0218597
0.008 -0.006 0.018556
-0.0045853 -0.0205092 0.0199532
-0.006 -0.020353 0.0185
-0.0135182 -0.0103799 0.0215192
-0.01525 -0.01225 0.018563
0.00708474 -0.0063503 0.0200561
0.00675 -0.00905 0.01825
-0.00478718 0.016719 0.0199196
-0.0065 0.016044 0.01825
-0.0145063 -0.010872 0.0196578
-0.015068 -0.01 0.01825
0.00492759 -0.011289 0.021624
0.0055 -0.011813 0.018
-0.00570668 -0.0203707 0.0190729
-0.00825 -0.02 0.018129
-0.0130841 -0.0032864 0.0212564
-0.014313 -0.00375 0.018
0.00640533 0.0105941 0.0202467
0.006 0.011058 0.01775
-0.00637487 0.0159679 0.0187778
-0.0085 0.014808 0.01775
-0.014129 -0.00595575 0.0198284
-0.015056 -0.00775 0.01775
0.00335599 0.013784 0.0209877
0.004 0.012685 0.0175
-0.00973755 0.0134527 0.0202816
-0.01 0.01325 0.017742
0.00835274 -0.00170497 0.0198301
0.01 0.00075 0.01728
0.00372526 -0.0134363 0.0217922
0.0035 -0.014271 0.01725
-0.00792614 -0.0198529 0.0181849
-0.01 -0.019051 0.01725
-0.0119028 0.0034372 0.0207619
-0.013527 0.00425 0.01725
0.00878872 0.00515614 0.0204302
0.010056 0.0045 0.017
0.00306088 0.0135807 0.0190966
0.00175 0.014 0.017223
-0.0100411 0.0130447 0.0189333
-0.01125 0.011045 0.017
0.0087399 -0.00197203 0.0190356
0.0095 -0.00225 0.01678
0.00294208 -0.0144908 0.0185635
0.00125 -0.01601 0.01675
-0.0131089 -0.0179964 0.0193322
-0.012 -0.01805 0.01675
0.00940797 0.00532245 0.0182321
0.009552 0.0065 0.0165
-0.000209237 0.0158249 0.0204623
-0.00042 0.0145 0.0165
-0.0110465 0.0112023 0.0176459
-0.01225 0.00875 0.016545
0.00899515 -0.00267658 0.0177162
0.009 -0.00425 0.016257
0.00123147 -0.0158036 0.0171903
-0.00075 -0.017009 0.01625
-0.0130084 0.00454493 0.0178129
-0.013067 0.006 0.01625
0.00701278 0.00997054 0.019383
0.008529 0.00825 0.016
-0.00100496 0.015064 0.0176646
-0.00275 0.015 0.016131
-0.0129523 -0.0175203 0.0178111
-0.0135 -0.01625 0.016113
0.00756822 -0.00618551 0.0189282
0.00825 -0.006049 0.01575
-0.000587413 -0.0166758 0.0164861
-0.003 -0.017541 0.01575
-0.0128487 0.00392455 0.0183356
-0.014 0.00225 0.015859
0.00776729 -0.00661125 0.0169513
0.0075 -0.007862 0.0155
-0.00533767 0.0162231 0.0189012
-0.00475 0.015055 0.0155
-0.0135609 -0.0162816 0.0166206
-0.0145 -0.014548 0.0155
0.00750839 0.00935822 0.0171432
0.00705 0.00975 0.01525
-0.00537027 -0.0204123 0.019337
-0.00525 -0.01775 0.01545
-0.0137716 0.00222586 0.0165121
-0.0145 0.00025 0.015361
0.00747493 -0.00759732 0.0160541
0.0065 -0.009813 0.015
-0.00549805 0.0152854 0.0164484
-0.00675 0.014543 0.015
-0.0147837 -0.011472 0.0187101
-0.015053 -0.0125 0.015
0.00604904 0.0108875 0.0182038
0.005337 0.011 0.01475
-0.00583886 -0.0183271 0.0161869
-0.00725 -0.017529 0.01475
-0.0140838 -0.00363456 0.018429
-0.01525 -0.004 0.01488
0.00646997 -0.00936465 0.0152816
0.005 -0.011377 0.0145
-0.00673922 0.0145538 0.0154394
-0.0085 0.013521 0.0145
-0.0147295 -0.00322382 0.0161932
-0.015057 -0.00175 0.0145
0.00317083 -0.0142046 0.017605
0.0035 -0.01287 0.01425
-0.00724555 -0.0177093 0.0151848
-0.00925 -0.017033 0.01425
-0.015092 -0.011611 0.0160391
-0.0155 -0.0105 0.014471
0.00506421 0.011174 0.0156452
0.003549 0.01175 0.014
-0.00821569 0.0136121 0.0147357
-0.01 0.012371 0.014
-0.0142775 -0.00351134 0.0177582
-0.015556 -0.00825 0.014
0.00297467 -0.0136135 0.0152402
0.002 -0.014 0.013952
-0.012927 -0.0168763 0.0168259
-0.01125 -0.016017 0.01375
-0.013477 0.00323968 0.0169095
-0.014502 0.00425 0.01375
0.00962109 -0.000161987 0.0172498
0.011 0.001 0.013529
0.00365137 0.0117422 0.0145181
0.00175 0.012545 0.0135
-0.00970628 0.0124475 0.0141543
-0.0115 0.010871 0.0135
0.0105744 0.00125816 0.0146415
0.011056 0.00325 0.01325
0.00217411 -0.0139388 0.0144362
0.00025 -0.01475 0.013454
-0.0123408 -0.0159499 0.0148403
-0.01275 -0.01455 0.01325
0.0100778 0.000147744 0.0157458
0.0105 -0.0015 0.013028
-0.000741324 0.0146295 0.0166971
-0.00025 0.013048 0.013
-0.0112025 0.0110653 0.0136217
-0.013 0.009313 0.013
0.00814117 0.00867112 0.0164344
0.010558 0.00525 0.01275
0.000212453 -0.0160664 0.0163516
-0.0015 -0.0155 0.01296
-0.0149286 -0.0120455 0.0153264
-0.014 -0.013 0.012952
0.0101549 -0.00149912 0.0137499
0.00975 -0.00338 0.0125
-0.000897224 0.0136834 0.0140431
-0.002 0.01351 0.0125
-0.0141034 0.0044867 0.0144239
-0.01425 0.00625 0.012546
0.00935522 0.00718713 0.0136085
0.009363 0.0075 0.01225
-0.00164901 -0.0156555 0.0135752
-0.0035 -0.01557 0.01225
-0.0146042 -0.0119818 0.0138951
-0.014566 -0.011 0.01225
-0.014215 0.00141576 0.0156046
-0.015534 0.00025 0.01225
0.0080002 -0.00641964 0.0159338
0.0085 -0.006327 0.012
-0.0058704 0.015066 0.0161457
-0.004 0.013559 0.012
-0.0150796 -0.00756988 0.0139492
-0.015061 -0.009 0.012
0.00862539 0.00807905 0.0145634
0.007871 0.009 0.01175
-0.0033196 -0.0157316 0.0126401
-0.0055 -0.016025 0.01175
-0.0148768 0.0012763 0.0134518
-0.015071 0.00225 0.01175
0.00799006 -0.00683881 0.0131188
0.00725 -0.008049 0.0115
-0.00538242 0.0139952 0.0129922
-0.006 0.013557 0.0115
-0.0142764 0.00492965 0.0135075
-0.015056 0.00425 0.0115
0.00765852 0.00900097 0.0125103
0.00625 0.010056 0.01125
-0.00518784 -0.0159006 0.0120245
-0.0075 -0.016 0.011459
-0.0151396 -0.00787623 0.013045
-0.015544 -0.007 0.01125
0.00718523 -0.00788923 0.012137
0.00575 -0.009553 0.011
-0.00777275 0.0138946 0.0149468
-0.008 0.013052 0.011
-0.0148656 -0.00578961 0.0148695
-0.015556 -0.005 0.011
0.00463876 0.0113071 0.0146556
0.00475 0.011029 0.01075
-0.00713514 -0.015832 0.0114867
-0.0095 -0.015542 0.01075
-0.0153351 -0.00469267 0.0121682
-0.015556 -0.003 0.01075
0.00585927 -0.00938963 0.0112238
0.0045 -0.010871 0.0105
0.00241427 -0.0138412 0.0146774
0.00175 -0.013052 0.0105
-0.00855728 0.0130352 0.012123
-0.01025 0.012029 0.0105
0.010834 0.0018546 0.013651
0.0115 0.001677 0.01025
0.0042244 0.0113199 0.0118875
0.003 0.01175 0.010349
-0.00904405 -0.0153755 0.0109047
-0.01125 -0.014533 0.01025
0.0112493 0.00232848 0.0115404
0.011556 0.00375 0.01
0.0030188 0.011788 0.0108667
0.001318 0.0125 0.01
-0.0100629 0.0120552 0.0110092
-0.012 0.010685 0.01
-0.0152545 0.00055131 0.0124518
-0.015556 -0.00075 0.01
0.0100939 -0.00205748 0.0128524
0.0105 -0.00186 0.00975
0.00148943 -0.013515 0.0112926
0.00025 -0.014029 0.00975
-0.0141815 -0.0124032 0.0130602
-0.01275 -0.013028 0.00975
0.00991696 0.0064629 0.0128015
0.011048 0.00575 0.0095
0.00155928 0.0122852 0.0102193
-0.00025 0.01275 0.009545
-0.0115752 0.0107764 0.0102637
-0.01325 0.009054 0.0095
0.0103721 0.00653272 0.0107506
0.01025 0.007527 0.00925
-0.00215019 -0.0156784 0.0132947
-0.0015 -0.01457 0.00925
-0.0135522 -0.0122802 0.0109341
-0.01357 -0.01125 0.00925
-0.0153781 0.000367773 0.0113416
[...]
CELL_DATA 799
SCALARS radius float
LOOKUP_TABLE default
0.113944
1.10646
0.150229
0.509099
0.153756
1.02938
0.123299
1.19464
0.0933367
0.774887
0.112078
0.429659
0.158896
0.291328
0.114928
0.682678
0.0850029
0.653148
0.106239
0.912582
0.10785
0.313508
0.0945776
1.11516
0.0868709
0.164842
0.144223
0.302365
0.111349
0.257121
0.145768
0.393457
0.149651
0.374755
0.145393
0.571487
0.143896
0.366529
0.136603
0.226081
0.177125
0.665485
0.130001
0.264037
0.154055
1.02154
0.10892
0.641367
0.0896867
0.245368
0.144804
0.183968
0.163263
0.318121
0.0711925
0.67389
0.0974581
0.604424
0.0952698
0.682096
0.0794931
0.6234
0.107624
0.205334
0.123422
0.627048
0.100431
0.646312
0.107742
0.223179
0.200664
0.23096
0.112443
0.1469
0.136725
0.379595
0.140772
0.250927
0.135335
0.39036
0.108525
0.264476
0.14167
0.233324
0.132915
0.152302
0.130854
0.226788
0.128589
0.299249
0.0895194
0.384622
0.148511
0.270872
0.0990907
0.216693
0.166527
0.257034
0.145023
0.217036
0.198955
0.200644
0.10882
0.637717
0.0886023
0.358739
0.12527
0.209442
0.180819
0.151998
0.136417
0.162331
0.148347
0.419666
0.0926482
0.659264
0.0995449
0.376917
0.148077
0.602412
0.0902503
0.352011
0.127632
0.372573
0.128672
0.601617
0.136206
0.658878
0.0906586
0.36575
0.146026
0.193539
0.175108
0.251851
0.139091
0.620355
0.0894169
0.637125
0.0811622
0.146777
0.134201
0.189741
0.176969
0.212074
0.157035
0.247941
0.137347
0.417278
0.110798
0.632452
0.0916672
0.240413
0.223768
0.388324
0.116047
0.241803
0.171029
0.200966
0.161903
0.243989
0.144531
0.191521
0.133801
0.631408
0.0916731
0.353994
0.168812
0.222989
0.182567
0.269223
0.101948
0.228521
0.207349
0.184003
0.156518
0.598713
0.101381
0.168297
0.147422
0.529107
0.0916104
0.251994
0.148397
0.345138
0.15191
0.599281
0.0883438
0.171791
0.159108
0.385478
0.108702
0.598598
0.101304
0.65812
0.101214
0.242186
0.220355
0.528278
0.116631
0.346641
0.172831
0.340256
0.130274
0.201717
0.118516
0.655677
0.0795231
0.35782
0.130482
0.479868
0.0994991
0.295021
0.168342
0.613278
0.137335
0.192813
0.176554
0.589155
0.0803261
0.181078
0.149586
0.333566
0.126243
0.273753
0.250636
0.352186
0.170913
0.479093
0.0987765
0.204095
0.0890418
0.612644
0.109434
0.331242
0.107048
0.331114
0.213033
0.374474
0.129954
0.403371
0.126793
0.157005
0.142711
0.19986
0.111495
0.324948
0.138222
0.170851
0.155507
0.280615
0.231638
0.400565
0.118353
0.233518
0.172567
0.193786
0.180607
0.526376
0.114157
0.597996
0.104281
0.338222
0.152958
0.310584
0.142069
0.226853
0.186964
0.235853
0.168715
0.494216
0.112755
0.593232
0.101987
0.331621
0.189321
0.336517
0.116685
0.590863
0.098067
0.654873
0.0907674
0.505139
0.104973
0.525449
0.111303
0.279164
0.111041
0.329879
0.158673
0.590204
0.101343
0.42423
0.1154
0.221892
0.182942
0.162827
0.143226
0.274551
0.124332
0.503421
0.138914
0.467126
0.096106
0.588672
0.093639
0.607325
0.0909918
0.477658
0.0881181
0.268358
0.160014
0.456473
0.142672
0.168434
0.157282
0.325013
0.143372
0.580378
0.0899848
0.318382
0.15099
0.471935
0.10303
0.25915
0.23697
0.30945
0.151298
0.200611
0.116741
0.528524
0.0912715
0.317158
0.172315
0.304746
0.125926
0.201378
0.173463
0.309627
0.229373
0.492252
0.0986024
0.191109
0.17532
0.461006
0.0833541
0.490197
0.125933
0.592156
0.103357
0.296647
0.241227
0.311803
0.170252
0.469757
0.115449
0.421364
0.101436
0.459811
0.0899482
0.289897
0.117585
0.308446
0.152966
0.570707
0.0971118
0.49987
0.129712
0.456547
0.126636
0.398641
0.123255
0.366053
0.09922
0.294086
0.163846
0.271649
0.152002
0.528912
0.100662
0.498322
0.142609
0.468328
0.116011
0.419956
0.113989
0.451779
0.142208
0.296971
0.150427
0.46553
0.109581
0.39279
0.109713
0.364233
0.133993
0.212543
0.19665
0.459529
0.0928919
0.363064
0.108824
0.188311
0.156075
0.458061
0.121121
0.390574
0.135549
0.527653
0.10016
0.450545
0.155082
0.458447
0.109595
0.335963
0.130966
0.266595
0.159568
0.29317
0.208481
0.453276
0.118768
0.276673
0.159897
0.36576
0.104939
0.272625
0.223745
0.254757
0.130508
0.262062
0.14468
0.254361
0.231423
0.283257
0.198821
0.196251
0.181684
0.394674
0.109101
0.494398
0.128117
0.487411
0.112786
0.427915
0.12739
0.332671
0.155007
0.175713
0.162229
0.251104
0.225288
0.455961
0.0968353
0.392428
0.136329
0.404607
0.151755
0.268344
0.22548
0.42645
0.10365
0.443716
0.136926
0.458896
0.119746
0.486062
0.106126
0.453094
0.152719
0.220457
0.124562
0.491404
0.111944
0.361762
0.109732
0.233312
0.126439
0.25551
0.137397
0.44216
0.145188
0.360976
0.123304
0.36238
0.134591
0.246117
0.180449
0.450765
0.10346
0.260116
0.238177
0.387667
0.134093
0.374267
0.163126
0.233221
0.189543
0.239004
0.157047
0.340026
0.157774
0.439301
0.111199
0.428886
0.105775
0.321052
0.170358
0.351709
0.0968485
0.432762
0.141239
0.187448
0.165328
0.386865
0.106974
0.251536
0.228862
0.214783
0.192117
0.271095
0.131212
0.313616
0.166249
0.397362
0.12481
0.355528
0.144959
0.222566
0.208036
0.447236
0.144196
0.383951
0.118073
0.348981
0.126479
0.190927
0.177988
0.405001
0.122562
0.41402
0.0992616
0.437739
0.13261
0.357648
0.103524
0.392872
0.139738
0.394904
0.120569
0.411843
0.146071
0.209791
0.193994
0.195545
0.176024
0.402064
0.150535
0.291534
0.169324
0.445717
0.127354
0.432349
0.164945
0.363639
0.156888
0.364442
0.12447
0.378239
0.11722
0.222794
0.192968
0.286019
0.196371
0.357968
0.12381
0.361417
0.121932
0.243909
0.143809
0.352695
0.146171
0.360068
0.158641
0.198106
0.181935
0.265976
0.172623
0.364026
0.111577
0.275836
0.237608
0.414355
0.13552
0.196964
0.179962
0.231738
0.211574
0.327182
0.144261
0.351511
0.130312
0.375461
0.140284
0.295876
0.205315
0.362674
0.176255
0.411668
0.155819
0.255429
0.164168
0.405624
0.124023
0.36092
0.153885
0.357678
0.155368
0.233966
0.208194
0.330998
0.166269
0.277229
0.233016
0.324329
0.136745
0.336135
0.15769
0.403633
0.128696
0.202977
0.188675
0.344119
0.118003
0.234747
0.216923
0.326897
0.188222
0.390929
0.159185
0.254875
0.225147
0.440629
0.120046
0.424194
0.162764
0.209493
0.187928
0.210647
0.174495
0.356427
0.117668
0.328416
0.13978
0.419829
0.141385
0.349852
0.148951
0.373177
0.156486
0.222997
0.20294
0.340967
0.136954
0.338622
0.200036
0.335131
0.166527
0.414158
0.145554
0.290336
0.161395
0.260892
0.154252
0.246919
0.219876
0.351344
0.134219
0.255513
0.164585
0.384756
0.142386
0.29501
0.152153
0.311885
0.156456
0.322376
0.168179
0.347897
0.156021
0.2787
0.259346
0.379069
0.151753
0.305205
0.168627
0.347552
0.148599
0.284217
0.185146
0.342801
0.195125
0.286279
0.193578
0.320823
0.157784
0.306901
0.208263
0.306993
0.164052
0.262288
0.242419
0.314521
0.174281
0.30423
0.210322
0.34931
0.149929
0.321692
0.147308
0.278105
0.193417
0.331815
0.208985
0.304612
0.22447
0.338512
0.159843
0.281056
0.195084
0.36723
0.218172
0.356246
0.160859
0.279862
0.163687
0.289819
0.235333
0.315458
0.150498
0.300748
0.19445
0.238233
0.192867
0.313542
0.242727
0.231247
0.207976
0.258386
0.236135
0.273562
0.207239
0.277268
0.198275
0.301911
0.236444
0.253073
0.233225
0.286981
0.216221
0.339188
0.196117
0.326567
0.186037
0.255228
0.23046
0.251245
0.230141
0.270558
0.213242
0.262337
0.209186
0.24166
0.212934
0.297427
0.225339
0.246969
0.223307
0.270868
0.247259
0.270762
0.248982
0.275801
0.237734
0.313001
0.289352
0.286125
0.228829
0.297852
0.209335
0.245393
0.226243
0.263176
0.222346
0.307598
0.271336
0.291084
0.248579
0.253698
0.23465
