# vtk DataFile Version 3.0
Tree
ASCII
DATASET POLYDATA
POINTS 260 float
0 0 0.0287941
0.0102224 -0.000465172 0.00635306
0.000150462 0.00251891 0.0221891
-0.0186399 0.0188893 0.0248949
4.51386e-05 0.000755672 0.0268126
-0.0221553 -0.011581 0.0280585
1.35416e-05 0.000226702 0.0281997
0.0223945 -0.0130672 0.0241893
4.06247e-06 6.80105e-05 0.0286158
0.00132201 -0.0254913 0.0271205
-0.00966837 -0.00244412 0.0229378
-0.015617 -9.78687e-05 0.0119061
4.51386e-05 0.000755672 0.0268126
0.00933642 0.0191295 0.0211355
0.00125546 0.00154438 0.0124891
-0.00453621 0.00159625 0.00111995
0.00177102 -0.0103951 0.023898
0.00518495 -0.0153922 0.0130483
-0.0055409 0.0117887 0.0225394
-0.00406982 0.0215935 0.0211207
0.0111449 -0.00198991 0.0238615
0.0205846 0.003705 0.0161436
-0.000784443 -0.00687734 0.0247046
-0.0110552 -0.017405 0.015169
0.00878068 0.010925 0.0255492
0.0206249 0.0160761 0.0287887
-0.00771054 -0.0142969 0.0216804
-0.0137825 -0.0213442 0.0248016
-0.012917 -0.000681142 0.019953
-0.0214004 0.00562367 0.0228935
-0.00391662 0.00800292 0.020717
-0.0114195 0.013219 0.0105982
0.000561225 0.000504616 0.0152312
-0.000940864 -0.00831883 0.00782557
0.0047647 -0.0170507 0.0255051
0.0128476 -0.0212256 0.0268756
0.0176183 0.000179744 0.0221267
0.026173 0.000877505 0.024281
-0.0101936 0.0171966 0.0248006
-0.0109298 0.0250163 0.0285963
-0.00312308 -0.00380379 0.0112071
-0.0113095 -0.0073196 0.00720694
0.00454512 0.00219091 0.0101435
0.00745963 0.010038 0.00756881
0.00707095 0.000106899 0.00902051
0.0116377 -0.00757244 0.00943213
0.00811656 0.0149431 0.0243449
0.00296518 0.0238026 0.025459
0.0158958 -0.00933082 0.0223133
0.0152558 -0.0155477 0.0179575
0.0148798 0.0127924 0.0250258
0.0204111 0.0131791 0.0209031
-0.00388447 -0.0116628 0.0226449
-0.0016545 -0.0182706 0.0192813
0.014806 -0.0065335 0.021966
0.0199888 -0.00770223 0.0159622
0.00104719 0.00123245 0.0133117
-0.000913711 0.012124 0.00776853
-0.0144309 -0.00697077 0.0227576
-0.0159742 -0.0107791 0.0179049
-0.00503229 -0.012453 0.0223555
-0.00630437 -0.0221341 0.028722
0.00780547 -0.00132493 0.0251629
0.0119016 0.00444321 0.0153157
-0.0032623 0.00219322 0.0082119
-0.00991512 0.0038172 0.00695838
-0.00364599 -0.000460249 0.0253402
-0.013662 0.00774245 0.0287642
0.0229999 -0.001164 0.0241152
0.0270617 -0.00541679 0.0267665
0.0156763 -0.000471153 0.0226471
0.0220944 0.00756006 0.0283587
0.00526128 0.00764727 0.024697
0.00548097 0.0129359 0.0163031
0.00777997 0.0102355 0.0199206
0.0140683 0.012358 0.0148333
-0.00786165 -0.00184896 0.0236585
-0.00783506 -0.00570077 0.0164607
-0.00552897 0.0110019 0.016955
-0.000963598 0.0193649 0.0133607
-0.013229 0.00643523 0.0279089
-0.0207006 0.0101047 0.0286445
0.00327915 0.00502846 0.0255009
-0.00154141 0.0147197 0.0284393
-0.014834 -0.000933658 0.0174047
-0.0214028 -0.00360971 0.0172696
-0.0203255 0.00299087 0.0234121
-0.0272569 0.00342631 0.0281063
0.00467383 -0.0113498 0.0196958
0.00921196 -0.0095215 0.01819
0.00224236 0.00173834 0.0117854
0.00272139 -0.0042626 0.00344923
0.0122432 -0.00335299 0.0232928
0.0140831 -0.00633274 0.0282351
-0.00266529 -0.00645706 0.010045
-0.00406171 -0.0140481 0.00942791
-0.00437896 0.0194748 0.02353
-0.00307236 0.0280335 0.0276986
-0.00440033 0.00890263 0.0195884
-0.012624 0.00781293 0.0188713
-0.00987459 0.00798565 0.0172542
-0.0145528 0.00687308 0.0120714
-0.0195258 -0.0118422 0.0261848
-0.0215921 -0.0177826 0.0274248
-0.000547892 -0.00479374 0.0258779
-0.00740261 -0.0089329 0.0287346
0.00455895 -0.0210508 0.0249736
0.00698075 -0.024102 0.0222222
0.0128668 -0.00141278 0.0234
0.0148292 -0.00258257 0.0140275
0.00456118 -0.0148585 0.0172753
0.0038334 -0.0204158 0.0167489
0.00672076 0.00476967 0.00938269
0.0144646 0.00547694 0.00967447
0.000333294 0.00631339 0.00859691
0.000738592 0.00693116 0.00280816
-0.016315 0.00148662 0.0207708
-0.0186672 0.00562286 0.0171467
0.00880729 -0.00152442 0.0247725
0.0128444 0.00448589 0.028643
-0.00298574 -0.00459977 0.0108584
-0.00372629 -0.00576862 0.00222558
0.0182813 -0.0125652 0.0237233
0.0188451 -0.0176796 0.025741
-0.00831979 0.0144028 0.0226548
-0.0137585 0.0169412 0.0177111
-0.0126211 -0.00525064 0.022826
-0.0214509 -0.00282111 0.0273705
-0.000900991 0.00824974 0.0082319
-0.00607809 0.00893832 0.0075873
-0.00788368 -0.00748433 0.00960355
-0.0107693 -0.0129305 0.0100518
0.0091604 0.0170246 0.0237484
0.01322 0.0217373 0.0262738
0.0043169 -0.0121607 0.018112
0.00234159 -0.0103755 0.0130507
0.000437996 0.0011089 0.0173186
0.0057019 -0.000841453 0.0161212
-0.00115184 -0.00764876 0.00893142
0.00481941 -0.0113787 0.00637129
0.00546789 -0.000859439 0.0260739
0.00748138 -0.00551806 0.0284095
0.00519781 0.00296454 0.00991528
0.00641621 0.0036139 0.00206141
0.00641298 0.0124399 0.0182571
0.00376322 0.0192303 0.0170819
-0.00320689 -0.0142575 0.0195195
-0.00337593 -0.0152658 0.0143659
0.00988949 0.0128127 0.0171826
0.00992397 0.0176206 0.0145024
-0.00204576 0.00548028 0.0213942
-0.000118036 0.00805107 0.0157038
-0.0158544 -0.00923078 0.0236634
-0.0147728 -0.0137189 0.0226184
0.0148334 -0.000753642 0.022873
0.0154188 0.00646887 0.0211746
-0.00517856 -0.0187471 0.0246058
-0.00410088 -0.0238676 0.0231162
-0.0210627 -0.00348275 0.0263844
-0.027633 -0.00310164 0.0277441
-0.000838811 -0.00113258 0.013702
-0.00847538 0.00141066 0.0134683
0.00274411 -0.00116012 0.0163771
0.00416219 -0.00532302 0.0149824
0.00394607 -0.0230033 0.0260385
0.00642391 -0.0264335 0.0284393
-0.0184266 -0.00439008 0.0244636
-0.0233372 -0.00554396 0.0215601
0.00319444 -0.0124448 0.0249206
0.00616479 -0.0122003 0.0281026
-0.0114338 -0.0172764 0.0243974
-0.0140684 -0.016884 0.0278171
0.00615003 0.0127954 0.0167515
0.00633226 0.0140227 0.0112712
-0.00956129 -0.0143467 0.0189535
-0.0114535 -0.0118105 0.0175228
0.00766146 -0.0184927 0.0250326
0.00986741 -0.0192991 0.0194865
0.000236722 0.0020959 0.020728
0.00500761 0.00474759 0.0191005
-0.0189692 0.0101126 0.0277084
-0.023056 0.0143266 0.0261421
-0.00418202 0.0151613 0.0227837
0.00126055 0.0166639 0.0218084
0.00512925 -0.0125781 0.025785
0.011286 -0.0138685 0.0249581
-0.0149346 0.000521859 0.0130177
-0.0142983 0.00330943 0.0080211
-0.0151996 -0.00819118 0.0232467
-0.0122774 -0.0115441 0.0276754
0.0215577 0.00480792 0.0251722
0.0252481 0.00655271 0.0247155
0.0196304 0.00329701 0.0235835
0.0224949 0.00721338 0.020137
-0.00681919 0.0129912 0.0225925
-0.0117339 0.0110496 0.0244019
-0.0182178 0.00522292 0.0191403
-0.0204224 0.0101034 0.0190895
0.00476288 0.019657 0.0236837
0.00202641 0.0216534 0.0207102
0.0139181 -0.00436334 0.0252869
0.0206584 -0.00482314 0.0280047
-0.00869274 -0.00212273 0.023327
-0.012171 -0.00129649 0.0273087
0.00276741 -0.0118299 0.0246138
-0.000630512 -0.0150134 0.0280445
-0.014896 0.00834758 0.0279381
-0.0140658 0.0130028 0.0285041
-0.0216291 -0.00385149 0.0225025
-0.0242519 -0.00114782 0.020778
0.00691719 -0.00114804 0.0255091
0.00659713 -0.00663427 0.0230665
0.00671144 -0.0112663 0.0187432
0.0104761 -0.0142795 0.0157957
0.0205764 -0.0130566 0.0245651
0.0243922 -0.0148202 0.0285714
0.0154817 -0.00826784 0.0221813
0.0235928 -0.00839086 0.0236774
-0.0126735 0.00821395 0.0156187
-0.0158608 0.00975462 0.0158554
0.0108899 -0.0191596 0.0250119
0.0147462 -0.0185321 0.0233792
-0.023822 -0.00460604 0.0271893
-0.0252856 -0.00782119 0.0280935
-0.00206329 -0.0174708 0.0195525
-0.000693425 -0.0225905 0.0206232
0.0156233 -0.00714657 0.0184833
0.0132825 -0.00772125 0.0146738
0.00836893 0.0134162 0.0248025
0.00556106 0.0160507 0.028472
0.0196212 -0.000770766 0.0223242
0.0215457 -0.0040181 0.019703
0.00865377 5.10141e-05 0.00854661
0.012299 0.000811002 0.0107799
-0.0142589 -0.000857903 0.0181692
-0.0128915 -0.00557233 0.0126239
-0.0143959 0.00777388 0.0279294
-0.0160894 0.0105854 0.0219284
-0.00442683 -0.00453275 0.00618769
-0.00728614 -0.0030246 0.0040433
-0.00909022 -0.0158846 0.0221162
-0.0103849 -0.0198913 0.0195536
-0.00974769 -0.0152716 0.0170735
-0.00801164 -0.0150555 0.0128234
-0.00968173 0.0112609 0.0119985
-0.0119452 0.00875947 0.00833426
-0.0036812 -0.0124412 0.0217073
-0.00376595 -0.0099854 0.01658
-0.0112353 0.0038827 0.0272009
-0.0174698 0.0015013 0.0278053
-0.000637781 -0.00558551 0.0254321
-0.00252286 -0.00376228 0.0198006
-0.00802495 0.00293981 0.0264985
-0.00727754 0.00800517 0.026836
-0.0146588 -0.0042343 0.0148809
-0.0172499 -0.00752856 0.0127628
-0.00659696 -0.00143235 0.024163
-0.00717663 0.001007 0.0193336
-0.00650751 -0.0219931 0.0268458
-0.00863818 -0.0264691 0.0279015
LINES 259 777
2 232 1
2 12 2
2 38 3
2 6 4
2 102 5
2 8 6
2 214 7
2 0 8
2 164 9
2 202 10
2 186 11
2 4 12
2 132 13
2 56 14
2 64 15
2 22 16
2 110 17
2 30 18
2 96 19
2 118 20
2 36 21
2 250 22
2 242 23
2 72 24
2 50 25
2 60 26
2 170 27
2 10 28
2 86 29
2 150 30
2 244 31
2 136 32
2 138 33
2 168 34
2 220 35
2 70 36
2 68 37
2 124 38
2 38 39
2 160 40
2 130 41
2 90 42
2 112 43
2 42 44
2 44 45
2 228 46
2 198 47
2 216 48
2 48 49
2 24 50
2 50 51
2 22 52
2 224 53
2 92 54
2 226 55
2 32 56
2 128 57
2 126 58
2 58 59
2 52 60
2 258 61
2 210 62
2 62 63
2 14 64
2 64 65
2 4 66
2 80 67
2 230 68
2 68 69
2 154 70
2 190 71
2 82 72
2 172 73
2 72 74
2 148 75
2 256 76
2 76 77
2 98 78
2 78 79
2 248 80
2 180 81
2 12 82
2 82 83
2 234 84
2 84 85
2 116 86
2 86 87
2 16 88
2 212 89
2 14 90
2 90 91
2 20 92
2 200 93
2 120 94
2 94 95
2 182 96
2 96 97
2 30 98
2 100 99
2 98 100
2 218 101
2 152 102
2 102 103
2 8 104
2 104 105
2 34 106
2 106 107
2 20 108
2 108 109
2 134 110
2 110 111
2 142 112
2 112 113
2 56 114
2 114 115
2 28 116
2 196 117
2 62 118
2 118 119
2 40 120
2 238 121
2 48 122
2 122 123
2 194 124
2 124 125
2 10 126
2 158 127
2 114 128
2 128 129
2 40 130
2 130 131
2 46 132
2 132 133
2 88 134
2 134 135
2 178 136
2 162 137
2 94 138
2 138 139
2 6 140
2 140 141
2 42 142
2 142 143
2 74 144
2 144 145
2 246 146
2 146 147
2 74 148
2 148 149
2 2 150
2 150 151
2 188 152
2 152 153
2 108 154
2 154 155
2 60 156
2 156 157
2 166 158
2 222 159
2 32 160
2 160 161
2 136 162
2 162 163
2 106 164
2 164 165
2 126 166
2 208 167
2 204 168
2 184 169
2 240 170
2 170 171
2 144 172
2 172 173
2 26 174
2 174 175
2 34 176
2 176 177
2 2 178
2 178 179
2 206 180
2 180 181
2 18 182
2 182 183
2 168 184
2 184 185
2 84 186
2 186 187
2 58 188
2 188 189
2 192 190
2 190 191
2 70 192
2 192 193
2 18 194
2 194 195
2 116 196
2 196 197
2 46 198
2 198 199
2 92 200
2 200 201
2 76 202
2 202 203
2 16 204
2 204 205
2 236 206
2 206 207
2 166 208
2 208 209
2 140 210
2 210 211
2 88 212
2 212 213
2 122 214
2 214 215
2 54 216
2 216 217
2 100 218
2 218 219
2 176 220
2 220 221
2 158 222
2 222 223
2 146 224
2 224 225
2 54 226
2 226 227
2 24 228
2 228 229
2 36 230
2 230 231
2 44 232
2 232 233
2 28 234
2 254 235
2 80 236
2 236 237
2 120 238
2 238 239
2 26 240
2 240 241
2 174 242
2 242 243
2 78 244
2 244 245
2 52 246
2 246 247
2 252 248
2 248 249
2 104 250
2 250 251
2 66 252
2 252 253
2 234 254
2 254 255
2 66 256
2 256 257
2 156 258
2 258 259
CELL_DATA 259
SCALARS radius float
LOOKUP_TABLE default
0.200507
0.749863
0.251539
0.959318
0.219538
1.03882
0.199739
1.12541
0.228533
0.603444
0.179134
0.829785
0.201521
0.477231
0.234547
0.532231
0.221234
0.44758
0.205152
0.591439
0.22281
0.662149
0.21547
0.439915
0.242116
0.40417
0.235003
0.47193
0.205015
0.54069
0.213327
0.618719
0.16566
0.421418
0.226891
0.361177
0.22172
0.317417
0.252327
0.437976
0.22432
0.414927
0.221844
0.326612
0.248864
0.367083
0.241853
0.37311
0.229811
0.301442
0.236323
0.518691
0.160568
0.439772
0.222176
0.523462
0.219176
0.383337
0.21001
0.468736
0.203006
0.609227
0.221707
0.294128
0.232341
0.677887
0.157054
0.300683
0.253473
0.438186
0.23368
0.518933
0.150032
0.379394
0.223103
0.616385
0.202317
0.333543
0.235668
0.381772
0.205085
0.530973
0.215113
0.320588
0.222289
0.302811
0.267536
0.375353
0.19379
0.436633
0.227715
0.468313
0.186678
0.325617
0.236132
0.304466
0.269572
0.408974
0.192407
0.315141
0.234443
0.304508
0.260387
0.672643
0.198076
0.334067
0.221776
0.470532
0.219736
0.288718
0.236565
0.291827
0.24064
0.326314
0.222672
0.369363
0.19544
0.599278
0.202762
0.386204
0.22826
0.341435
0.235692
0.352094
0.226815
0.485777
0.166266
0.287265
0.236194
0.297799
0.247291
0.279938
0.239591
0.324545
0.216283
0.630617
0.180058
0.277449
0.256173
0.619891
0.179415
0.331999
0.227285
0.314907
0.238203
0.306458
0.209876
0.285951
0.230689
0.548442
0.190353
0.333404
0.206652
0.453983
0.211282
0.333117
0.222962
0.329182
0.253386
0.453745
0.211084
0.2406
0.20075
0.297664
0.243506
0.387761
0.210533
0.448997
0.17408
0.293041
0.23012
0.260671
0.242923
0.315914
0.201874
0.334891
0.229668
0.635521
0.180666
0.306218
0.271839
0.335443
0.211946
0.250271
0.218283
0.280056
0.253118
0.361056
0.215495
0.293221
0.231771
0.333281
0.22772
0.373055
0.202217
0.282836
0.247498
0.301939
0.237403
0.260403
0.22342
0.609033
0.183336
0.460858
0.194559
0.339176
0.217612
0.282864
0.236934
0.614841
0.184776
0.265424
0.225202
0.298926
0.265628
0.400093
0.229602
0.289149
0.224331
0.294124
0.239653
0.314389
0.245552
0.26933
0.248779
0.275921
0.215726
0.386516
0.2023
0.330357
0.206993
0.268832
0.224848
0.379638
0.210164
0.372698
0.233619
0.284715
0.22365
0.325522
0.210517
0.285625
0.236917
0.288523
0.242781
0.331899
0.198146
0.401879
0.210014
0.666869
0.18422
0.414867
0.186613
0.279209
0.231979
0.621537
0.180913
0.295798
0.259699
