# vtk DataFile Version 3.0
Tree
ASCII
DATASET POLYDATA
POINTS 260 float
0 0 0.0287941
0.000140911 0.0048008 0.0122984
0.0034925 -0.0169443 -0.00894383
0.00498928 -0.0242062 -0.0127769
-0.00872362 0.00775594 -0.0052971
-0.0172447 0.0201738 -0.00925968
0.00505956 0.0059991 -0.00757537
0.0196612 0.00505056 -0.0195193
0.00599531 -0.0107859 0.00283568
0.0281053 -0.00563406 0.00241525
-0.00202743 0.0126378 -0.00464085
0.00337718 0.0266969 -0.00100053
-0.00289854 -0.00333788 -0.0100086
-0.00463687 0.0043795 -0.0277503
-0.0186548 0.00866796 0.00778098
-0.0210851 0.00639785 0.014235
-0.00536353 -0.0134863 0.0139664
-0.0115048 -0.0206158 0.0106599
-0.00548223 -0.0182686 -0.0102526
-0.0191945 -0.0136999 -0.00868318
0.0150173 0.00607342 0.00782141
0.0149992 0.0176641 0.0118739
-0.013983 0.00889911 0.00523217
-0.0101129 0.0125991 0.0222704
0.00952267 -0.00588887 0.00671414
0.0137912 -0.00832138 0.0209236
-0.00964128 -0.0146428 0.01188
-0.024075 -0.00799701 0.00544004
0.00818228 -0.00774975 0.00524032
0.0164347 -0.0209676 0.00966727
-0.00557808 0.00176528 -0.00784134
-0.0226919 0.00261527 -0.0135487
-0.00727667 0.00500024 -0.00646745
-0.00785126 0.0171112 -0.0199488
0.00157518 -0.0128624 -0.00926327
-0.00371306 -0.0115116 -0.0224728
0.0146274 0.0136356 0.00361138
0.014098 0.0182832 -0.00422872
-0.00195588 -0.0126762 0.0106272
0.00321657 -0.0221646 0.0145829
0.0121847 -0.00360988 0.0142985
0.0153712 0.00433538 0.0216217
0.00247334 0.0209586 0.00693925
0.00427246 0.0229774 0.0148678
0.00465684 0.00767428 0.0219331
0.000747787 0.0108078 0.0236358
-0.00511928 -0.0109484 -0.0164148
-0.0162899 -0.00757063 -0.0197078
-0.00510768 0.0103921 -0.00494273
-0.00720417 0.0263683 -0.00329567
-0.0153846 0.00882977 0.00599681
-0.0130189 0.0224345 0.00600033
0.00583011 -0.0141778 -0.00511669
0.0139327 -0.0125794 -0.0110559
0.0105558 0.018166 -0.0051445
0.00519782 0.0220985 -0.0133159
0.0206097 -0.00395689 -0.0110838
0.0252075 8.09833e-05 -0.0123685
0.00512883 -0.0150078 -0.00626483
0.0110416 -0.022223 -0.00577776
-0.00664686 -0.0138333 0.0133405
-0.0117453 -0.00535561 0.0148144
-0.0121453 -0.00467844 0.0172025
-0.0162181 0.0021103 0.021518
-0.00970736 0.0086573 -0.0134259
-0.0154652 0.00768035 -0.0197637
-0.0161653 -0.0128845 -0.0085983
-0.0240472 -0.00556638 -0.00658642
-0.000736807 -0.018715 0.0108133
-0.00203558 -0.0261104 0.00790107
0.013159 0.00077441 0.00433729
0.0162299 0.00423736 -0.00304006
0.0147444 0.0113669 0.00487439
0.0242866 0.0133557 -0.00266357
-0.00145043 -0.0109523 -0.0147062
0.000525231 -0.00509707 -0.0261763
0.0201667 -0.0030052 -0.0121927
0.00857837 -0.00494644 -0.0165264
0.0113861 -0.00429358 0.0120232
0.021202 -0.00172862 0.0150802
-0.0213955 -0.00462375 0.00449344
-0.0276613 0.00462331 -0.0012604
0.00888513 0.0068601 -0.015209
0.00620662 0.00988712 -0.0246007
0.00468464 -0.0163163 -0.00496401
-0.00321502 -0.0114351 -0.0021757
0.0146047 -0.00199275 -0.0166951
0.0102351 0.0022746 -0.0245581
0.00042948 -0.0121091 0.00828975
-0.00327744 -0.00516227 0.00545706
-0.00960123 -0.0112171 0.01484
-0.0171453 -0.0128021 0.0166031
-0.00920211 0.0133966 0.0150131
-0.00527212 0.0170526 0.0167555
0.0149093 -0.00833873 -0.0102017
0.0168416 -0.00970347 -0.0197004
-0.00718125 0.00113146 -0.0210411
-0.0118952 0.00197474 -0.0240263
-0.0203176 0.00791261 0.00956508
-0.0258449 0.00765072 0.00807753
0.0149354 0.00766147 0.0069373
0.00743161 0.0148381 0.0121444
0.0204768 -0.00367139 -0.0114165
0.0243465 0.00319841 -0.00590704
0.0102771 -0.00322431 0.00439564
0.00582076 -0.00351453 -0.00390443
-0.0176608 0.00545495 -0.00986398
-0.0225297 0.00996331 -0.00871635
0.00914475 0.0189336 -0.0093809
0.0108101 0.0160644 -0.0196454
-0.0117105 0.0191546 0.0057714
-0.00564231 0.0262687 0.00518675
0.0166194 -0.00702418 -0.0104663
0.0234573 -0.0130198 -0.00904545
0.0039834 -0.0163634 -0.00814013
0.00362605 -0.0207028 -0.019143
0.0105903 -0.0123272 0.0089167
0.00970883 -0.0127682 0.0145757
0.0038803 -0.0112887 0.00490823
-0.00459607 -0.0223653 0.00229484
0.00627192 -0.0185342 -0.0129636
0.012463 -0.0203968 -0.0159359
0.0128626 0.0180293 -0.00550544
0.0202013 0.0169635 -0.00948879
0.0149927 0.00654984 0.00755617
0.0230383 0.00772305 0.00762364
0.00411348 0.0115824 0.0115273
0.00108347 0.0117249 0.0123787
-0.021128 -0.00497372 0.00380256
-0.0166124 -0.00105471 0.000673732
0.0150099 0.00621635 0.00774184
0.0159689 0.0127084 0.0194883
0.0102771 -0.00322431 0.00439564
0.021913 -0.0044502 -0.00270567
-0.0135316 0.0033956 -0.0103185
-0.0183733 -3.05006e-05 -0.0181671
-0.00160906 -0.00404589 0.0243458
-0.00130638 0.000912754 0.0179715
0.00888623 -0.00357151 -0.00542136
0.00986242 -0.00370956 -0.00928112
0.0112399 -0.00561502 0.0188202
0.00743343 -0.00673267 0.0247689
-0.00574853 -0.0135904 0.0137787
-0.00876048 -0.0107022 0.024941
-0.00547803 -0.0194384 0.00246787
-0.0150114 -0.0214062 0.000672754
-0.00537416 -0.0119432 -0.0186239
-0.00965188 -0.0169674 -0.0205106
0.00594575 -0.0118035 0.000449971
0.0156072 -0.0225259 0.00157397
-0.0116883 -0.00397276 0.016016
-0.00965268 0.00166812 0.0133332
-0.00482435 0.0198556 -0.00598554
-0.00169981 0.0259319 -0.0105494
0.0182989 0.0137947 0.00213588
0.0192601 0.0183328 0.00155513
-0.00437382 0.0145709 -0.00635867
-0.000574142 0.0165816 -0.0124496
-0.0037024 -0.00180693 -0.00935845
0.00370457 -0.000733761 -0.0104857
0.0100659 -0.013144 0.0132955
0.0100558 -0.0165547 0.0195789
0.0134178 0.0173992 0.00857723
0.00988244 0.0224731 0.0119037
-0.00488752 0.0116458 -0.00536751
0.000914859 0.00971433 -0.0133782
-0.0137563 -0.00963236 0.00481
-0.0115322 -0.0103473 0.00268449
0.000119183 0.015639 -0.00135131
0.00462548 0.0180277 -0.0034772
0.0168574 0.00504689 -0.00587984
0.0187762 0.00729075 -0.0115363
-0.0149202 -0.00260704 0.0178171
-0.0185646 -0.00309948 0.0156985
-0.00889685 -0.0155518 -0.00986993
-0.00926923 -0.0092468 -0.0107097
-0.00333612 -0.00838849 0.0195713
0.00404742 -0.0076446 0.0142877
-0.00840007 0.0215547 0.00695487
-0.00508891 0.0216287 0.0104992
-0.0191537 0.00844135 0.00831621
-0.019378 0.0125216 0.0160359
-0.00554063 -0.0135342 0.0138801
-0.00679638 -0.020292 0.0154104
0.0100162 -0.00964475 0.00656339
0.0152617 -0.00984186 0.00549983
-0.0123569 -0.0105011 0.00390039
-0.00805005 -0.0144586 0.00241198
-0.00418361 0.0110658 -0.00485216
-0.00413956 0.00551724 -0.00154976
-0.0176756 -0.00280188 0.0160141
-0.0234079 -0.00248628 0.0114457
0.000523373 -0.0100731 0.0174279
0.00411903 -0.0150424 0.0164452
-0.0133365 -0.00989297 0.00453712
-0.019416 -0.0164844 -0.00209594
-0.0124052 0.00855616 0.00207339
-0.0187972 0.0180996 0.00408507
0.0194126 -0.00487708 -0.0108986
0.0132158 0.00122053 -0.0108637
-0.00619447 0.00503006 0.0182059
-0.0082245 0.00785719 0.0169404
-0.00876156 0.0106161 -0.016955
-0.00792044 0.0084069 -0.0204386
0.011701 0.017871 -0.00243894
0.0108837 0.0247963 -0.00270539
0.0110008 -0.0145665 -0.000487913
0.0157182 -0.0124809 -0.00386304
-0.00576146 -0.00233238 -0.01331
-0.0150884 -0.00477516 -0.0123126
-0.0172757 -0.00747256 0.00538159
-0.0197967 -0.00672672 0.00968417
0.0239589 0.000375859 0.003273
0.0272698 0.000591532 0.000724696
0.00849967 0.0183254 -0.0142384
0.00541344 0.0192209 -0.017931
-0.0143316 -0.0127462 0.00102931
-0.0116796 -0.0144332 -0.00230529
-0.00496829 -0.000620141 -0.0179629
-0.00130609 -0.000175918 -0.0210918
0.0132868 0.0150999 0.00527576
0.00738486 0.0168363 0.00592279
0.0156062 0.0184489 -0.00822801
0.0163708 0.0204415 -0.0118146
-0.00249196 -0.0183603 0.00300953
-0.00219713 -0.027455 0.00163048
-0.0247644 -0.00185806 0.000483661
-0.0280567 -0.00267236 -0.00489533
-0.0108758 -0.0131396 0.00975898
-0.0179173 -0.0165774 0.00837216
0.0158394 -0.00521004 0.0141896
0.018877 -0.00976521 0.0171402
-0.00500641 0.0109688 -0.00513813
-0.00500731 0.0184909 -0.0133532
-0.0174967 0.0122604 0.00165078
-0.0251101 0.0136055 -0.00116024
-0.0178661 -0.00309008 0.00143542
-0.0116982 -0.00355607 -0.00349558
-0.0195831 -0.00474278 0.00514205
-0.0211037 0.00327593 0.00639853
-0.0201268 -0.00470707 0.00494747
-0.0116406 0.000243336 0.00419458
0.0138578 0.00531145 -0.00259869
0.00931465 0.00965387 -0.00291897
-0.0148476 -0.00786377 -0.017851
-0.0207137 -0.00572229 -0.0158989
-0.0098281 0.00799601 -0.00308596
-0.013395 0.0143863 -0.00365778
0.0176072 0.00682004 -0.0102057
0.01632 0.0108204 -0.0194052
-0.0110481 0.0132766 -0.00279217
-0.0101087 0.0195519 -0.00138321
-0.00667434 0.00713484 0.0186597
-0.00570707 0.0146119 0.0238882
-0.0031397 -0.0028786 -0.00981359
0.00237458 -0.00427688 -0.0135329
0.0159575 0.00512626 -0.0048955
0.0213142 0.00907427 -0.00441699
0.0111417 -0.0020247 0.00437813
0.00729323 0.00233805 0.00227688
LINES 259 777
2 6 1
2 114 2
2 18 3
2 32 4
2 14 5
2 10 6
2 82 7
2 118 8
2 212 9
2 188 10
2 42 11
2 34 12
2 96 13
2 50 14
2 98 15
2 176 16
2 26 17
2 2 18
2 66 19
2 70 20
2 162 21
2 196 22
2 92 23
2 28 24
2 140 25
2 60 26
2 128 27
2 8 28
2 116 29
2 158 30
2 106 31
2 30 32
2 202 33
2 2 34
2 146 35
2 72 36
2 122 37
2 16 38
2 68 39
2 78 40
2 44 41
2 168 42
2 42 43
2 40 44
2 44 45
2 74 46
2 244 47
2 4 48
2 152 49
2 22 50
2 110 51
2 148 52
2 56 53
2 204 54
2 108 55
2 198 56
2 76 57
2 52 58
2 84 59
2 142 60
2 150 61
2 90 62
2 172 63
2 32 64
2 64 65
2 174 66
2 66 67
2 38 68
2 68 69
2 258 70
2 170 71
2 100 72
2 154 73
2 34 74
2 74 75
2 102 76
2 86 77
2 24 78
2 230 79
2 240 80
2 226 81
2 6 82
2 82 83
2 58 84
2 84 85
2 76 86
2 86 87
2 38 88
2 88 89
2 60 90
2 90 91
2 22 92
2 92 93
2 52 94
2 94 95
2 218 96
2 96 97
2 180 98
2 98 99
2 124 100
2 126 101
2 56 102
2 102 103
2 24 104
2 138 105
2 134 106
2 106 107
2 54 108
2 214 109
2 50 110
2 178 111
2 94 112
2 112 113
2 58 114
2 120 115
2 184 116
2 160 117
2 88 118
2 144 119
2 114 120
2 120 121
2 54 122
2 222 123
2 130 124
2 124 125
2 100 126
2 126 127
2 80 128
2 236 129
2 20 130
2 130 131
2 104 132
2 132 133
2 30 134
2 134 135
2 0 136
2 200 137
2 104 138
2 138 139
2 40 140
2 140 141
2 182 142
2 142 143
2 224 144
2 144 145
2 46 146
2 146 147
2 8 148
2 206 149
2 62 150
2 150 151
2 156 152
2 152 153
2 72 154
2 154 155
2 164 156
2 156 157
2 254 158
2 158 159
2 116 160
2 160 161
2 220 162
2 162 163
2 232 164
2 164 165
2 228 166
2 186 167
2 10 168
2 168 169
2 256 170
2 248 171
2 62 172
2 190 173
2 18 174
2 174 175
2 136 176
2 192 177
2 110 178
2 178 179
2 14 180
2 180 181
2 16 182
2 182 183
2 28 184
2 184 185
2 194 186
2 186 187
2 48 188
2 188 189
2 172 190
2 190 191
2 176 192
2 192 193
2 166 194
2 216 195
2 246 196
2 234 197
2 112 198
2 198 199
2 136 200
2 252 201
2 64 202
2 202 203
2 36 204
2 204 205
2 148 206
2 206 207
2 12 208
2 208 209
2 166 210
2 210 211
2 20 212
2 212 213
2 108 214
2 214 215
2 194 216
2 216 217
2 208 218
2 218 219
2 36 220
2 220 221
2 122 222
2 222 223
2 118 224
2 224 225
2 80 226
2 226 227
2 26 228
2 228 229
2 78 230
2 230 231
2 48 232
2 232 233
2 196 234
2 234 235
2 128 236
2 236 237
2 210 238
2 238 239
2 238 240
2 240 241
2 70 242
2 242 243
2 46 244
2 244 245
2 4 246
2 250 247
2 170 248
2 248 249
2 246 250
2 250 251
2 200 252
2 252 253
2 12 254
2 254 255
2 242 256
2 256 257
2 132 258
2 258 259
CELL_DATA 259
SCALARS radius float
LOOKUP_TABLE default
0.339405
0.989994
0.257735
0.846606
0.344292
0.478246
0.333133
1.21524
0.282244
0.572123
0.323998
0.933337
0.283159
0.465197
0.260344
1.28647
0.191763
0.417484
0.229667
0.697659
0.236828
0.618737
0.312065
0.826849
0.220851
0.562978
0.218276
0.848804
0.247089
0.898477
0.273611
0.872934
0.286663
0.964601
0.22302
0.58932
0.201847
1.23096
0.213951
0.418652
0.310043
0.400333
0.311235
0.360258
0.256891
0.40636
0.23353
0.668205
0.281725
0.566265
0.254353
1.05049
0.266594
0.518449
0.28151
0.461496
0.23395
1.00595
0.222048
0.627175
0.172156
0.390091
0.237182
0.387954
0.267296
0.350408
0.313836
0.277407
0.226071
0.7476
0.208437
0.618578
0.266664
0.43877
0.258981
0.395293
0.275406
0.463116
0.236072
0.437084
0.275139
0.41269
0.321775
0.28359
0.228043
0.365837
0.303924
1.22625
0.202125
0.408697
0.207276
0.380981
0.292042
0.520818
0.239973
0.343085
0.260512
0.334065
0.269784
0.648773
0.275379
0.429701
0.25999
0.77527
0.229133
0.343983
0.272425
0.434927
0.320134
0.432503
0.324772
0.50325
0.241309
0.998383
0.231481
0.338291
0.174698
1.22442
0.199321
0.291919
0.231911
0.385034
0.296498
0.658111
0.228703
0.33135
0.249315
0.352801
0.215127
0.67118
0.258731
0.760853
0.243668
0.391745
0.26878
1.29649
0.219112
0.2944
0.238029
0.298589
0.251187
0.635776
0.217501
0.30004
0.26727
0.30031
0.251938
1.05765
0.240012
0.263972
0.236878
0.359484
0.288832
0.317554
0.235494
0.397199
0.253077
0.902914
0.221028
0.286956
0.263509
0.326827
0.278613
0.431433
0.260315
0.545687
0.155755
0.427057
0.23943
0.371445
0.209319
0.344729
0.171313
0.381773
0.232813
1.28977
0.197692
0.400931
0.311385
0.391184
0.282643
0.64142
0.190423
0.358919
0.195939
0.244616
0.22144
0.584373
0.230761
0.302294
0.282713
0.254167
0.205617
0.341176
0.24408
0.65354
0.267863
0.484032
0.247241
0.323052
0.184175
0.339967
0.25059
0.538288
0.255186
0.287974
0.215841
0.406406
0.247025
0.49702
0.204805
0.333868
0.245141
0.391406
0.300568
0.292698
0.21922
0.373372
0.226806
0.365179
0.239794
0.365577
0.28353
0.344776
0.240858
0.340819
0.265713
0.555462
0.207155
0.296061
0.233886
0.462284
0.264424
0.348326
0.284565
0.322407
0.286664
0.485147
0.241861
0.46422
0.254778
0.427755
0.229321
0.342046
0.301041
0.675657
0.215878
0.348135
0.320825
0.308319
0.267998
0.285188
0.256863
0.90691
0.214119
0.40455
0.246401
0.752429
0.201237
