# vtk DataFile Version 3.0
Tree
ASCII
DATASET POLYDATA
POINTS 260 float
0 0 0.0287941
0.0140818 0.024017 -0.0259948
0.00368876 0.0020265 -0.00283876
-0.00291935 -0.0202105 -0.0215645
-0.00637587 -0.0070352 0.013971
-0.0269867 -0.0274417 0.0120064
0.0177362 0.0158812 -0.000914407
0.0279792 0.0156412 0.0221424
-0.00698654 0.00178402 -0.0115482
-0.0159072 0.0210389 -0.00707897
0.00561712 -0.0100768 0.00372248
0.0249538 -0.0282544 -0.00341975
-0.00587541 0.00441661 0.0207726
-0.0118752 0.0258239 0.0213217
0.0132392 -0.0193282 0.00777147
0.0107398 -0.0223432 0.0263457
0.000745478 -0.00758613 -0.0189918
0.0159796 -0.00654421 -0.0266855
-0.0194211 0.006783 -0.0170402
-0.028734 -0.00327628 -0.0285615
-0.012156 0.0144575 0.0171492
-0.0214491 0.0158113 0.00720447
-0.0181191 -0.0140992 0.0174609
-0.0247609 -0.00894191 0.0286801
0.019607 0.0130916 -0.0124388
0.0285942 -0.00337969 -0.0134098
0.0109437 -0.0139747 -0.0218721
0.0174098 -0.023318 -0.0220027
-0.0244193 -0.0164746 0.00684716
-0.0269966 -0.0105422 -0.0040437
0.019572 0.0187177 0.0124146
0.0125863 0.0262859 0.0203386
-0.0058313 -0.01289 -0.0233981
-0.0130811 -0.0139022 -0.0281965
-0.00376539 -0.0115417 0.00444944
-0.010759 -0.0196538 -0.00832203
-0.0265598 -0.0178978 -0.00382987
-0.028227 -0.0228294 -0.0131289
0.00804185 -0.0229255 0.0171757
-0.00246633 -0.0287301 0.0201304
0.00684343 0.0130395 0.000676824
-0.00109874 0.0255247 0.00751763
-0.0206159 -0.016404 0.0230827
-0.0194455 -0.0282246 0.0247169
0.0112796 -0.0120441 0.00897022
0.0171294 -0.00652965 0.017837
0.0156534 0.0182953 0.0206492
0.0137349 0.0139278 0.0280587
0.0199755 0.019404 -0.0196259
0.0272377 0.0231498 -0.0226143
0.00568042 0.0201444 0.0011373
0.0117666 0.0241453 -0.00549669
0.0123797 -0.0208817 -0.0211537
0.00868246 -0.0279646 -0.0191572
-0.00865769 -0.0124208 -0.0014127
-0.0132452 -0.00541047 -0.00189081
-0.000912582 0.0011131 -0.0179246
0.00366043 0.0127738 -0.0236873
0.0212665 0.00448183 -0.013827
0.0126948 0.00587286 -0.0160095
0.00598418 -0.00522979 -0.00124004
0.0141618 -0.0126296 -0.0115717
-0.0168799 0.0174692 -0.0139422
-0.0143613 0.0286555 -0.0173601
-0.0123256 -0.0118581 0.0151561
-0.0128052 -0.0197882 0.0117173
0.0190344 -0.0190075 0.00307905
0.0205482 -0.00798151 0.00380278
0.000887403 -0.0125709 0.00362416
0.000651152 -0.0233921 0.000787418
-0.00417348 -0.00104237 0.016446
0.00781836 0.000597257 0.0107588
-0.0222197 0.0031198 -0.0243422
-0.0161118 0.00807056 -0.0266599
-0.0144713 0.00393578 -0.00968996
-0.0195068 0.00375575 0.00136487
-0.0212646 0.00857922 -0.00466819
-0.0281281 0.0150816 -0.00326077
0.0181283 0.0183592 0.00567561
0.0148988 0.0248694 0.00521801
0.0159935 -0.011074 -0.0246403
0.0232235 -0.012107 -0.0262575
0.0211177 -0.021359 -0.00592892
0.0210349 -0.0199828 -0.0151191
0.0165719 -0.0115328 0.0135235
0.0234952 -0.0165202 0.0150983
0.0224988 0.0133527 0.0167557
0.0204167 0.00307296 0.0168011
-0.00113032 0.000971409 0.0244501
0.00997216 -0.00662668 0.022403
0.00555434 -0.0115324 -0.0195621
0.00377153 -0.0161516 -0.0142187
0.0233785 0.00120742 -0.0171449
0.0204349 0.00177208 -0.0261534
0.0160988 0.0234785 -0.0204759
0.0128659 0.0286839 -0.0153829
-0.0108818 0.020839 0.0172854
-0.00792626 0.0242586 0.0128671
-0.020341 0.0132698 -0.0144283
-0.0256105 0.0177373 -0.0112528
0.0084993 -0.0237654 -0.0172162
0.00498928 -0.0242062 -0.0127769
0.006372 0.00756328 0.000604419
0.0131654 0.00774936 0.0109575
0.0131715 -0.0230732 0.0132084
0.0189373 -0.0285918 0.0164414
-0.00158648 0.024009 0.00187377
-0.00823214 0.0266557 -0.000299371
-0.00736758 0.0108402 0.01593
-0.0040268 0.0158826 0.00761858
0.00102803 -0.0248247 0.0201612
-0.00499817 -0.0230743 0.0244615
-0.00478065 0.00279973 -0.00349522
-0.0113087 0.00513444 0.00725875
-0.0138702 0.023631 -0.0175304
-0.00900926 0.0266912 -0.0228511
3.13234e-05 0.00859831 -0.0193733
-0.00276779 0.0145195 -0.0165126
0.0192372 -0.0241533 0.0183183
0.0247307 -0.0228855 0.0237583
0.019855 -0.0225357 -6.46212e-05
0.018989 -0.0282491 0.00472019
-0.0188456 0.00378333 -0.00648096
-0.02233 -0.00191548 -0.00396842
-0.00638259 0.00197931 0.019176
-0.0147255 0.00377422 0.0226569
0.0106635 0.0157443 -0.00388556
0.00492532 0.01864 -0.0133442
-0.00350363 0.0149752 0.0134651
0.00261419 0.0198454 0.0166254
-0.0233628 -0.00924241 0.0238059
-0.0250837 -0.00308368 0.0220059
0.0219836 -0.0212688 0.0238289
0.0230296 -0.0179193 0.0287187
0.0123208 -0.0196547 0.0223107
0.0168809 -0.0154291 0.0248169
-0.0257512 -0.0191771 -0.0136867
-0.023801 -0.018478 -0.0226491
0.0210292 0.0109651 -0.00512784
0.0268244 0.00230905 0.000501101
-0.015554 0.00727217 -0.0157233
-0.0126812 0.0125975 -0.0228372
0.0239152 0.00466832 -0.00028731
0.0247131 -0.00163083 0.00572669
0.0222683 -0.0168727 -0.0110137
0.0238986 -0.0113655 -0.0134405
-0.0180731 0.0188291 0.0142266
-0.0226678 0.0285233 0.0180767
-0.0107352 -0.0122352 -0.0237715
-0.0150596 -0.00939467 -0.019248
-0.00448196 0.00197767 0.0231993
-0.0104964 -0.00242272 0.0268112
-0.0201626 -0.0173901 0.0095807
-0.0182171 -0.0231376 0.00144732
0.0118189 0.021767 -0.0228207
0.00691697 0.0191341 -0.0232994
0.00942915 -0.0115371 -0.00584228
0.0089418 -0.0192991 -0.00586899
-0.022425 -0.0210686 0.0250113
-0.0284145 -0.0195542 0.0281027
-0.0108144 -0.0194228 -0.00706612
-0.0133584 -0.0270949 -0.011733
0.0130553 0.0169162 0.0241088
0.00856698 0.0183616 0.0245371
-0.0231607 -0.0220549 0.00974637
-0.01699 -0.0238705 0.0113052
-0.0125378 0.0107002 -0.0172579
-0.00806507 0.0134289 -0.0130739
-0.0121763 0.00072497 -0.0109004
-0.0191059 -0.00384266 -0.0108274
-0.0067833 0.0099902 0.0201595
-0.00741253 0.0169811 0.0241172
0.0179173 -0.013498 0.0156584
0.0134646 -0.0128517 0.0193485
0.0111883 0.00592893 0.00559685
0.0158091 0.00151365 0.00660243
-0.0215126 0.0221285 0.0160626
-0.025106 0.0195334 0.0163838
-0.0193838 -0.0250122 0.0240507
-0.0149688 -0.0269744 0.021917
-0.0258869 0.000641982 -0.0242387
-0.0278721 0.00158025 -0.0191506
0.0238063 6.57364e-05 0.000864574
0.0226145 -0.00457045 -0.00304658
-0.00885106 0.0059189 0.00149579
-0.0118572 0.0112714 0.00203956
-0.00551966 -0.0115624 0.00957046
-0.00827799 -0.0255307 0.0117833
0.00493278 -0.00197738 -0.000966141
0.00552444 -0.0042855 0.00562671
0.0229075 -0.012523 0.0151932
0.0270097 -0.00966539 0.0148308
0.0209706 -0.0164573 0.00462828
0.0242193 -0.0225006 0.0077849
0.00416757 -0.0238163 -0.0167987
-5.93359e-05 -0.0236661 -0.0184417
0.0221927 0.00574815 0.016292
0.0237851 -0.00205812 0.0150478
0.0168928 0.0212864 0.0160637
0.0156013 0.0284951 0.0136834
-0.0227624 0.0259099 0.0213281
-0.0239107 0.0279344 0.0275925
0.0225473 0.0198684 -0.0229548
0.0208609 0.0167818 -0.0280997
0.00450198 -0.00161714 0.0220593
0.00629649 0.00041012 0.0182511
-0.0231816 -0.0182232 -0.0185358
-0.018803 -0.0165692 -0.0207622
0.00854819 -0.0120759 -0.0207698
0.0103861 -0.00791316 -0.0210934
-0.0231493 -0.00580508 0.0242018
-0.0206336 -0.00400479 0.0272771
-0.0144711 0.0175505 0.0140288
-0.0136619 0.0205079 0.00934508
0.019806 0.0141827 -0.00336475
0.0224063 0.0188488 -0.00547559
-0.0254423 0.0126316 -0.00179571
-0.0283411 0.0156207 0.00398217
-0.0200054 0.00621697 0.000314579
-0.0187764 0.00565516 0.00623248
0.0144368 -0.0115593 -0.0213641
0.0176478 -0.00866346 -0.0168942
-0.00985204 -0.00917994 0.0156594
-0.0129315 -0.00754156 0.0223908
-0.0255983 -0.0207613 -0.0216995
-0.028626 -0.0241389 -0.0240117
0.0029586 -0.00314715 0.015663
0.00759328 -0.0104333 0.0201493
0.017928 -0.0229289 -0.0243782
0.0230749 -0.0245377 -0.0284065
-0.00460554 0.00184708 -0.016087
-0.00863509 0.00429518 -0.0243835
0.00658739 -0.00817369 0.000955539
0.0114202 -0.0113703 -0.000799371
0.000944645 -0.0176323 -0.000176453
0.00136184 -0.0182804 -0.00670747
0.0235466 -0.000946094 -0.0223786
0.0273431 -0.00712902 -0.0255413
-0.0212539 0.0186123 0.00955521
-0.025575 0.0215037 0.00556835
-0.0197627 -0.015954 0.013958
-0.0235826 -0.0172401 0.0166434
0.00244254 -0.0253089 -0.0219079
0.00217382 -0.0274452 -0.0281419
-0.00903956 0.00668997 0.00488428
-0.00671555 0.00956924 0.00701131
-0.0113716 0.0260414 -0.0219068
-0.010502 0.0287424 -0.0270795
-0.0106403 -0.011731 0.0221043
-0.0101891 -0.0160731 0.0276386
0.00452084 -0.0245494 0.0188039
0.00443428 -0.0286914 0.0196359
-0.0129482 -0.00786155 -0.0240084
-0.0130183 -0.00378307 -0.027459
2.04273e-05 -0.00217158 -0.0193614
0.000659158 0.00437017 -0.0249098
0.0160003 -0.0230496 0.0159949
0.0147465 -0.0195877 0.0174176
0.0137211 0.0159841 -0.00114318
0.0107807 0.0170371 0.00657717
LINES 259 777
2 154 1
2 188 2
2 32 3
2 70 4
2 164 5
2 258 6
2 86 7
2 112 8
2 62 9
2 68 10
2 82 11
2 150 12
2 96 13
2 44 14
2 134 15
2 254 16
2 80 17
2 140 18
2 180 19
2 108 20
2 238 21
2 64 22
2 130 23
2 138 24
2 92 25
2 208 26
2 228 27
2 152 28
2 36 29
2 78 30
2 46 31
2 16 32
2 148 33
2 186 34
2 160 35
2 28 36
2 136 37
2 104 38
2 110 39
2 102 40
2 106 41
2 22 42
2 178 43
2 10 44
2 84 45
2 198 46
2 162 47
2 24 48
2 202 49
2 40 50
2 50 51
2 26 52
2 100 53
2 34 54
2 54 55
2 230 56
2 116 57
2 24 58
2 58 59
2 232 60
2 156 61
2 98 62
2 114 63
2 222 64
2 64 65
2 14 66
2 192 67
2 34 68
2 234 69
2 124 70
2 226 71
2 18 72
2 72 73
2 168 74
2 218 75
2 122 76
2 216 77
2 6 78
2 78 79
2 220 80
2 80 81
2 120 82
2 144 83
2 44 84
2 190 85
2 30 86
2 196 87
2 0 88
2 204 89
2 16 90
2 90 91
2 58 92
2 236 93
2 48 94
2 94 95
2 20 96
2 96 97
2 18 98
2 98 99
2 52 100
2 194 101
2 2 102
2 174 103
2 14 104
2 118 105
2 50 106
2 106 107
2 170 108
2 128 109
2 250 110
2 110 111
2 2 112
2 244 113
2 62 114
2 246 115
2 56 116
2 116 117
2 256 118
2 132 119
2 66 120
2 120 121
2 74 122
2 122 123
2 12 124
2 124 125
2 40 126
2 126 127
2 108 128
2 128 129
2 42 130
2 210 131
2 118 132
2 132 133
2 38 134
2 134 135
2 36 136
2 224 137
2 214 138
2 142 139
2 74 140
2 166 141
2 138 142
2 182 143
2 82 144
2 144 145
2 212 146
2 200 147
2 32 148
2 252 149
2 88 150
2 150 151
2 240 152
2 152 153
2 94 154
2 154 155
2 60 156
2 156 157
2 42 158
2 158 159
2 54 160
2 160 161
2 46 162
2 162 163
2 28 164
2 164 165
2 140 166
2 166 167
2 8 168
2 168 169
2 12 170
2 170 171
2 84 172
2 172 173
2 102 174
2 174 175
2 146 176
2 176 177
2 158 178
2 178 179
2 72 180
2 180 181
2 142 182
2 182 183
2 112 184
2 184 185
2 4 186
2 186 187
2 60 188
2 188 189
2 172 190
2 190 191
2 66 192
2 192 193
2 100 194
2 242 195
2 86 196
2 196 197
2 30 198
2 198 199
2 176 200
2 200 201
2 48 202
2 202 203
2 88 204
2 204 205
2 136 206
2 206 207
2 90 208
2 208 209
2 130 210
2 210 211
2 20 212
2 212 213
2 6 214
2 214 215
2 76 216
2 216 217
2 76 218
2 218 219
2 26 220
2 220 221
2 4 222
2 248 223
2 206 224
2 224 225
2 70 226
2 226 227
2 52 228
2 228 229
2 8 230
2 230 231
2 10 232
2 232 233
2 68 234
2 234 235
2 92 236
2 236 237
2 146 238
2 238 239
2 22 240
2 240 241
2 194 242
2 242 243
2 184 244
2 244 245
2 114 246
2 246 247
2 222 248
2 248 249
2 38 250
2 250 251
2 148 252
2 252 253
2 56 254
2 254 255
2 104 256
2 256 257
2 126 258
2 258 259
CELL_DATA 259
SCALARS radius float
LOOKUP_TABLE default
0.312182
1.15543
0.274912
1.32105
0.256599
0.820607
0.287036
0.94238
0.286669
1.2457
0.2746
1.35515
0.23713
0.661937
0.267875
0.735424
0.283963
0.605864
0.305266
0.494052
0.229256
0.644021
0.235069
0.646436
0.301756
0.645877
0.261458
0.537959
0.249102
0.579278
0.308888
0.465708
0.270493
1.25908
0.176765
0.496726
0.250458
0.466536
0.270684
0.860679
0.264762
0.450201
0.23531
0.702618
0.224308
0.444677
0.310118
0.527696
0.291037
0.385306
0.253944
0.580006
0.274784
0.345962
0.224737
0.765658
0.263686
0.497573
0.288863
1.16447
0.24029
0.500945
0.294856
0.651188
0.208146
0.494393
0.259165
1.25031
0.217591
1.32548
0.220241
0.426723
0.288421
0.712652
0.245763
0.448436
0.265942
0.59266
0.239771
0.378002
0.314522
0.417395
0.290106
0.384462
0.24792
0.441305
0.275585
1.35965
0.218128
0.667005
0.249519
0.462739
0.314733
0.457968
0.310234
0.297781
0.235563
0.524987
0.266757
0.518317
0.289411
0.872874
0.237237
0.553089
0.236346
0.344336
0.281334
0.524183
0.216773
0.358464
0.297115
0.957368
0.234991
0.467464
0.299955
0.332999
0.264914
0.388412
0.259078
0.444021
0.245647
0.470774
0.241923
1.32699
0.19994
0.834128
0.247647
0.286176
0.236634
0.357737
0.251236
0.356727
0.303679
0.349844
0.286821
0.474899
0.300309
0.693698
0.23441
0.63628
0.255877
0.399345
0.287689
0.373278
0.30219
0.440092
0.261407
0.431295
0.312095
1.35645
0.192606
0.552774
0.236455
0.404518
0.329484
0.304075
0.24239
0.356912
0.239962
0.310922
0.290575
0.388104
0.305929
0.321156
0.253181
0.327744
0.264249
0.720732
0.231778
0.533616
0.199302
0.357112
0.231423
0.301792
0.241784
0.37925
0.224096
0.316312
0.265044
0.377299
0.293424
0.370372
0.299983
0.343612
0.234858
1.26165
0.230532
1.15752
0.203081
0.321232
0.261635
0.321725
0.251425
0.491178
0.344042
0.396416
0.345842
0.476867
0.273735
0.351136
0.294072
0.370581
0.297159
0.260665
0.194276
0.45044
0.290847
0.655157
0.227546
0.320079
0.256797
0.454984
0.207616
0.700967
0.219707
0.364042
0.308765
0.347417
0.300328
0.420425
0.272802
0.667366
0.208201
0.405728
0.341153
0.285325
0.23236
0.382293
0.336192
0.773352
0.239094
1.16623
0.192717
0.278294
0.224078
0.415261
0.343221
0.313087
0.265146
0.560269
0.190959
0.4551
0.376891
0.302263
0.244628
0.42454
0.367243
0.276309
0.229389
0.388698
0.233098
0.392434
0.310853
0.744058
0.242016
0.407462
0.208408
0.826787
0.232569
