# vtk DataFile Version 4.1
vtk output
ASCII
DATASET POLYDATA
POINTS 1 float
52693.5 58443.5 11943.5 
METADATA
INFORMATION 2
NAME L2_NORM_RANGE LOCATION vtkDataArray
DATA 2 79592.1 79592.1 
NAME L2_NORM_FINITE_RANGE LOCATION vtkDataArray
DATA 2 79592.1 79592.1 

VERTICES 1 2
1 0 

POINT_DATA 1
FIELD FieldData 2
LAT 1 1 float
24.5 
METADATA
INFORMATION 0

Active 1 1 float
1 
METADATA
INFORMATION 0

