# vtk DataFile Version 4.1
vtk output
ASCII
DATASET POLYDATA
POINTS 17 float
45193.5 59193.5 24693.4 50443.5 57693.5 27693.5 44943.5 59693.5 27693.5 
40943.5 60193.5 27943.5 43443.5 60193.5 32943.5 38693.5 60693.5 30443.5 
39693.5 60443.5 32443.5 38443.5 60443.5 30443.5 36943.5 60443.5 32443.5 
26193.5 59443.5 25193.5 34943.5 60443.5 32443.5 30693.5 60193.5 29443.5 
30943.5 61193.5 31193.5 23193.4 58943.5 26193.5 23443.4 58693.5 26443.5 
27693.5 60443.5 32193.5 14693.5 53693.5 25193.5 
METADATA
INFORMATION 2
NAME L2_NORM_RANGE LOCATION vtkDataArray
DATA 2 61103.2 81486.3 
NAME L2_NORM_FINITE_RANGE LOCATION vtkDataArray
DATA 2 61103.2 81486.3 

VERTICES 17 34
1 0 
1 1 
1 2 
1 3 
1 4 
1 5 
1 6 
1 7 
1 8 
1 9 
1 10 
1 11 
1 12 
1 13 
1 14 
1 15 
1 16 

POINT_DATA 17
FIELD FieldData 2
LAT 1 17 float
47 44 48 55 62 59.5 61.5 59.5 63 
61.5 64 64.5 65 62 63 64.5 65.5 
METADATA
INFORMATION 0

Active 1 17 float
1 1 1 1 1 1 1 1 1 
1 1 1 1 1 1 1 1 
METADATA
INFORMATION 0

