# vtk DataFile Version 4.2
vtk output
ASCII
DATASET POLYDATA
POINTS 5 float
34428.5 50094.5 20226.4 41358.5 47372.5 18988.4 26756.5 47619.5 18493.4 
35170.5 49104.5 21958.4 26756.5 47619.5 19978.4 
METADATA
INFORMATION 2
NAME L2_NORM_RANGE LOCATION vtkDataArray
DATA 2 57667.4 65690.5 
NAME L2_NORM_FINITE_RANGE LOCATION vtkDataArray
DATA 2 57667.4 65690.5 

VERTICES 5 10
1 0 
1 1 
1 2 
1 3 
1 4 

POINT_DATA 5
FIELD FieldData 2
LAT 1 5 float
16.2777 16.2337 16.7474 17.641 16.7708 
METADATA
INFORMATION 0

Active 1 5 float
1 1 1 1 1 
METADATA
INFORMATION 0

