# vtk DataFile Version 4.1
vtk output
ASCII
DATASET POLYDATA
POINTS 80 float
57694 51444 16943 54193 61443 16943 56444 57694 25944 
57194 56444 25944 57194 53443 26693 52693 65194 19443 
49194 63944 11694 49194 62193 9443 55693 58194 27693 
49194 64194 10443 49694 66944 14944 48194 63944 9943 
49194 64194 8443 46193 67694 11694 47443 66694 9443 
45693 68444 11694 45443 70444 11943 51694 71194 24693 
50694 72693 24943 44193 75693 18693 41944 75193 11694 
50694 71943 29944 41194 76443 17693 50694 72693 30194 
37943 75693 15194 38443 76943 15943 38443 76943 17193 
40444 78193 17943 39193 78443 17693 42194 79944 21443 
37943 78943 17943 43444 79694 25694 38443 80694 20693 
44193 79944 26194 39193 82194 21193 31193 80194 18693 
35944 83194 21443 41694 80444 29944 41194 77193 32694 
36443 83444 23693 34194 82944 20693 31943 82944 20193 
35694 82944 27443 35694 82444 27943 36443 79194 31943 
18693 74193 17193 26693 81444 19693 28944 82694 21193 
35194 73943 36194 31193 70444 36443 31443 78443 31693 
27193 73443 33194 21943 68944 32193 29944 73193 34944 
29944 72693 34944 23193 80444 21443 16443 73943 20193 
26693 77443 30693 15444 72443 18943 31193 79194 31443 
24943 73693 32193 28694 71693 35694 29944 72693 35694 
20693 79444 21193 23693 81444 22193 23443 80944 21443 
15943 74193 20443 21443 74193 29944 11943 68444 20943 
24443 74943 31943 24693 74443 32193 19693 78193 24193 
15693 74443 21193 19193 75443 26693 13943 72193 20943 
13444 71693 21443 19193 72193 29694 13694 69694 24193 
18193 71693 29194 12443 64194 27443 
METADATA
INFORMATION 2
NAME L2_NORM_RANGE LOCATION vtkDataArray
DATA 2 70914.1 95426.8 
NAME L2_NORM_FINITE_RANGE LOCATION vtkDataArray
DATA 2 70914.1 95426.8 

VERTICES 80 160
1 0 
1 1 
1 2 
1 3 
1 4 
1 5 
1 6 
1 7 
1 8 
1 9 
1 10 
1 11 
1 12 
1 13 
1 14 
1 15 
1 16 
1 17 
1 18 
1 19 
1 20 
1 21 
1 22 
1 23 
1 24 
1 25 
1 26 
1 27 
1 28 
1 29 
1 30 
1 31 
1 32 
1 33 
1 34 
1 35 
1 36 
1 37 
1 38 
1 39 
1 40 
1 41 
1 42 
1 43 
1 44 
1 45 
1 46 
1 47 
1 48 
1 49 
1 50 
1 51 
1 52 
1 53 
1 54 
1 55 
1 56 
1 57 
1 58 
1 59 
1 60 
1 61 
1 62 
1 63 
1 64 
1 65 
1 66 
1 67 
1 68 
1 69 
1 70 
1 71 
1 72 
1 73 
1 74 
1 75 
1 76 
1 77 
1 78 
1 79 

POINT_DATA 80
FIELD FieldData 2
LAT 1 80 float
24.5 33.5 35 35 37 34.5 48.5 41.5 41 
48.5 42 48.5 48.5 56.5 51.5 57 58.5 41.5 
41.5 57.5 59 53.5 61 55.5 60.5 60.5 60 
62 60.5 56.5 61 53 59 53 59 78 
66 58.5 64 63.5 67.5 73.5 59 59 67 
100.5 79.5 74.5 68.5 83 72.5 84 89.5 81 
81 78.5 92 78 95 73 83.5 82.5 81 
83.5 78.5 78.5 92 83.5 99 83 83 84.5 
92 83.5 92.5 92.5 84.5 93.5 85 94 
METADATA
INFORMATION 0

Active 1 80 float
1 1 1 1 1 1 1 1 1 
1 1 1 1 1 1 1 1 1 
1 1 1 1 1 1 1 1 1 
1 1 1 1 1 1 1 1 1 
1 1 1 1 1 1 1 1 1 
1 1 1 1 1 1 1 1 1 
1 1 1 1 1 1 1 1 1 
1 1 1 1 1 1 1 1 1 
1 1 1 1 1 1 1 1 
METADATA
INFORMATION 0

