# vtk DataFile Version 4.1
vtk output
ASCII
DATASET POLYDATA
POINTS 5 float
0.0344285 0.0500945 0.0202264 0.0413585 0.0473725 0.0189884 0.0267565 0.0476195 0.0184934 
0.0351705 0.0491045 0.0219584 0.0267565 0.0476195 0.0199784 

VERTICES 5 10
1 0 
1 1 
1 2 
1 3 
1 4

POINT_DATA 5
FIELD FieldData 2
LAT 1 5 float
16.2777 16.2337 16.7474 17.641 16.7708  
METADATA
INFORMATION 0

Active 1 5 float
1 1 1 1 1 
METADATA
INFORMATION 0

