# vtk DataFile Version 4.1
vtk output
ASCII
DATASET POLYDATA
POINTS 130 float
34428.5 50094.5 20226.4 41358.5 47372.5 18988.4 26756.5 47619.5 18493.4 
35170.5 49104.5 21958.4 26756.5 47619.5 19978.4 29478.5 48114.5 21463.4 
37151.5 49352.5 23691.4 30221.5 48362.5 22700.4 38388.5 49104.5 25423.5 
43338.5 37719.5 12306.5 28983.5 48857.5 25670.5 40615.5 47867.5 26413.5 
45070.5 44154.5 22948.4 45318.5 41927.5 20968.4 45070.5 38957.5 18493.4 
33933.5 49847.5 27403.5 42348.5 47124.5 27898.5 26261.5 48609.5 26660.5 
24033.4 47124.5 25670.5 19826.4 40937.5 17503.4 19578.4 41184.5 18741.4 
27251.5 49104.5 28145.5 45813.5 40442.5 25670.5 43091.5 46382.5 29630.5 
24033.4 48114.5 27403.5 45318.5 43164.5 29136.5 44081.5 46134.5 30373.5 
25023.5 48857.5 29136.5 39130.5 48609.5 31611.5 46803.5 35739.5 21215.4 
22053.4 46629.5 28393.5 37398.5 49352.5 32106.5 33685.5 49847.5 31363.5 
45813.5 31037.5 10573.5 46803.5 32522.5 18988.4 44823.5 30047.5 12801.5 
21311.4 34749.5 12801.5 46061.5 34254.5 23196.4 19330.4 41184.5 28393.5 
31706.5 50342.5 33096.5 19330.4 35492.5 22948.4 45070.5 44154.5 35323.5 
19826.4 35492.5 25670.5 20073.4 37224.5 29383.5 25765.5 49599.5 34581.5 
19826.4 39204.5 31611.5 42100.5 46629.5 37798.5 20321.4 35492.5 30126.5 
29726.5 50094.5 36313.5 40615.5 47619.5 38045.5 22053.4 40937.5 35323.5 
32448.5 50837.5 38788.5 23538.4 45392.5 37303.5 21311.4 34007.5 32106.5 
22795.4 41927.5 37055.5 23291.4 28809.5 12306.5 23785.4 43907.5 37551.5 
38636.5 47867.5 41015.5 43585.5 20889.4 19483.4 34428.5 49599.5 41015.5 
31706.5 50342.5 40273.5 21806.4 34749.5 34085.5 33438.5 50589.5 41015.5 
44328.5 43659.5 42748.5 28241.5 48857.5 40768.5 26508.5 46382.5 40768.5 
41606.5 46134.5 43491.5 24033.4 42669.5 39283.5 23538.4 40689.5 39530.5 
41606.5 28314.5 37798.5 41853.5 30542.5 40521.5 42843.5 25592.5 31858.5 
23785.4 34749.5 37303.5 42100.5 45392.5 44480.5 36903.5 48362.5 43738.5 
41606.5 26334.5 34581.5 40863.5 19652.4 21711.4 41853.5 17919.4 18493.4 
41606.5 33017.5 43243.5 41110.5 30789.5 41758.5 27745.5 47372.5 42253.5 
23291.4 25592.5 18493.4 38140.5 46629.5 44480.5 39873.5 28809.5 40025.5 
23291.4 29552.5 30868.5 41110.5 24602.4 32600.5 23785.4 24602.4 13543.5 
36160.5 48362.5 45223.5 42100.5 34997.5 45223.5 40615.5 22869.4 30868.5 
23785.4 25839.5 24433.4 39625.5 20147.4 26660.5 39130.5 19404.4 24433.4 
43091.5 36729.5 46461.5 27498.5 44649.5 42995.5 41110.5 32769.5 45470.5 
25270.5 34502.5 39036.5 27251.5 43164.5 42995.5 25765.5 42669.5 42995.5 
42100.5 38214.5 47946.5 25518.5 33017.5 39036.5 26508.5 23117.4 20226.4 
39873.5 45392.5 47946.5 25765.5 36977.5 42253.5 26756.5 29799.5 37055.5 
26013.5 24107.4 26908.5 34675.5 20394.4 26413.5 26756.5 24849.4 30126.5 
34675.5 20394.4 29630.5 33191.5 19652.4 23691.4 27745.5 27819.5 36808.5 
27498.5 41679.5 45966.5 28241.5 29799.5 40521.5 27003.5 36482.5 44728.5 
32200.5 28067.5 41015.5 32200.5 26087.5 38540.5 31706.5 27077.5 39283.5 
32448.5 23364.4 34085.5 28241.5 34749.5 45470.5 29973.5 29552.5 41758.5 
27745.5 38462.5 46955.5 31706.5 24602.4 35323.5 29973.5 23859.4 33096.5 
28241.5 35739.5 46708.5 30715.5 30047.5 44233.5 29973.5 18662.4 16760.4 
29728.5 32024.5 45968.5 29230.5 37719.5 48688.5 29726.5 35987.5 48440.5 
30715.5 35244.5 49431.5 
METADATA
INFORMATION 2
NAME L2_NORM_RANGE LOCATION vtkDataArray
DATA 2 36802.8 77131.3 
NAME L2_NORM_FINITE_RANGE LOCATION vtkDataArray
DATA 2 36802.8 77131.3 

VERTICES 130 260
1 0 
1 1 
1 2 
1 3 
1 4 
1 5 
1 6 
1 7 
1 8 
1 9 
1 10 
1 11 
1 12 
1 13 
1 14 
1 15 
1 16 
1 17 
1 18 
1 19 
1 20 
1 21 
1 22 
1 23 
1 24 
1 25 
1 26 
1 27 
1 28 
1 29 
1 30 
1 31 
1 32 
1 33 
1 34 
1 35 
1 36 
1 37 
1 38 
1 39 
1 40 
1 41 
1 42 
1 43 
1 44 
1 45 
1 46 
1 47 
1 48 
1 49 
1 50 
1 51 
1 52 
1 53 
1 54 
1 55 
1 56 
1 57 
1 58 
1 59 
1 60 
1 61 
1 62 
1 63 
1 64 
1 65 
1 66 
1 67 
1 68 
1 69 
1 70 
1 71 
1 72 
1 73 
1 74 
1 75 
1 76 
1 77 
1 78 
1 79 
1 80 
1 81 
1 82 
1 83 
1 84 
1 85 
1 86 
1 87 
1 88 
1 89 
1 90 
1 91 
1 92 
1 93 
1 94 
1 95 
1 96 
1 97 
1 98 
1 99 
1 100 
1 101 
1 102 
1 103 
1 104 
1 105 
1 106 
1 107 
1 108 
1 109 
1 110 
1 111 
1 112 
1 113 
1 114 
1 115 
1 116 
1 117 
1 118 
1 119 
1 120 
1 121 
1 122 
1 123 
1 124 
1 125 
1 126 
1 127 
1 128 
1 129 

POINT_DATA 130
FIELD FieldData 2
LAT 1 130 float
16.2777 16.2337 16.7474 17.641 16.7708 18.5758 22.1937 18.2113 20.9513 
22.6546 20.1257 22.9329 25.9366 20.6387 21.6724 20.0824 24.5305 22.5758 
23.6561 21.1749 22.4766 24.3206 22.5268 28.6258 25.4329 27.8676 29.0045 
29.7521 25.6459 24.4328 27.5874 24.0763 24.0689 28.8688 26.1359 27.2781 
30.203 26.8749 26.3306 25.9238 26.5707 32.5345 28.2824 28.7072 27.3488 
32.6928 34.3126 29.4741 34.5365 33.1437 32.288 28.469 32.9415 32.9161 
34.3911 30.1872 32.6621 32.7278 38.9703 28.3719 33.5529 41.6886 28.9527 
37.5469 29.9258 30.5488 39.7687 32.1027 45.6997 34.5897 34.5948 33.9245 
37.667 40.1611 30.8464 33.9935 38.7806 40.9537 35.8639 35.8496 31.2556 
31.5795 35.0442 35.3119 35.0802 36.0272 35.618 31.9214 35.7168 36.099 
33.5408 37.4979 37.6581 36.2771 33.1493 37.7643 39.8644 33.9497 39.2481 
36.6993 45.9735 36.0483 39.4842 41.7723 42.9696 36.2355 44.5793 36.935 
43.6937 45.9859 41.8985 35.1434 45.7739 37.0106 50.0928 42.9705 43.9518 
46.1017 38.345 48.8329 37.3527 41.4495 41.1492 39.0221 50.3749 37.293 
40.5625 39.0323 40.5798 41.9718 
METADATA
INFORMATION 0

Active 1 130 float
1 1 1 1 1 1 1 1 1 
1 1 1 1 1 1 1 1 1 
1 1 1 1 1 1 1 1 1 
1 1 1 1 1 1 1 1 1 
1 1 1 1 1 1 1 1 1 
1 1 1 1 1 1 1 1 1 
1 1 1 1 1 1 1 1 1 
1 1 1 1 1 1 1 1 1 
1 1 1 1 1 1 1 1 1 
1 1 1 1 1 1 1 1 1 
1 1 1 1 1 1 1 1 1 
1 1 1 1 1 1 1 1 1 
1 1 1 1 1 1 1 1 1 
1 1 1 1 1 1 1 1 1 
1 1 1 1 
METADATA
INFORMATION 0

