# vtk DataFile Version 4.1
vtk output
ASCII
DATASET POLYDATA
POINTS 10 float
0.0344285 0.0500945 0.0202264 0.0413585 0.0473725 0.0189884 0.0267565 0.0476195 0.0184934 
0.0351705 0.0491045 0.0219584 0.0267565 0.0476195 0.0199784 0.0294785 0.0481145 0.0214634 
0.0371515 0.0493525 0.0236914 0.0302215 0.0483625 0.0227004 0.0383885 0.0491045 0.0254235 
0.0433385 0.0377195 0.0123065 

VERTICES 10 20
1 0 
1 1 
1 2 
1 3 
1 4
1 5 
1 6 
1 7 
1 8 
1 9

POINT_DATA 10
FIELD FieldData 2
LAT 1 10 float
16.2777 16.2337 16.7474 17.641 16.7708 18.5758 22.1937 18.2113 20.9513 
22.6546  
METADATA
INFORMATION 0

Active 1 10 float
1 1 1 1 1 1 1 1 1 1 
METADATA
INFORMATION 0

