# vtk DataFile Version 4.1
vtk output
ASCII
DATASET POLYDATA
POINTS 1 float
0.0526935 0.0584435 0.0119435 

VERTICES 1 2
1 0 

POINT_DATA 1
FIELD FieldData 2
LAT 1 1 float
21.2173 
METADATA
INFORMATION 0

Active 1 1 float
1 
METADATA
INFORMATION 0

