# vtk DataFile Version 3.0
Tree
ASCII
DATASET POLYDATA
POINTS 1582 float
162774 225274 273.8
162774 225274 10273.8
141774 225774 23773.8
135774 213962 30773.8
137574 217505 28673.8
131774 207982 53773.8
133978 211601 44235.8
152774 203774 58881.8
135057 213372 39567.4
112254 200774 47773.8
133141 208389 52375
134774 199774 73077.8
148399 204487 57611.4
157774 193774 78053.8
133892 204426 61898.2
112774 193182 71773.8
154211 197845 70285.8
167774 185246 68773.8
116172 195322 66373.8
100774 187974 63773.8
157858 194079 76975.8
167282 185774 89773.8
114337 194166 69289.8
124470 193774 87773.8
113243 193477 71028.6
101774 185230 81773.8
124952 194522 84099
137774 195998 95773.8
165058 185921 69042.2
174530 165774 67773.8
166208 186476 86178.2
177786 174774 88773.8
105215 187704 78550.2
87029.8 173774 71773.8
169033 175909 66260.6
169774 164774 52345.8
124615 193998 86671.4
117774 193998 106774
173500 166135 67225.4
177774 148806 66773.8
174313 178285 87995
178774 173970 106774
120270 193439 93933.4
106774 190002 99773.8
137396 195463 95397.8
151078 195774 107774
170134 165820 54826.6
173774 150774 43229.8
92485.4 177953 73806.6
80773.8 167774 86397.8
143690 195606 101091
139774 195998 117774
176744 175827 88540.2
181942 158774 83773.8
177435 175264 101140
183830 157774 105774
89200.2 173859 72973.4
79541.8 156774 71773.8
88035 174085 78591.4
86773.8 179774 98409.8
118212 194551 106347
115774 196774 123594
110937 191593 99665
102774 192774 113598
157799 193865 77730.2
150774 194066 89773.8
148861 195723 105769
162774 190102 106774
177149 152767 68751.8
183994 133774 79773.8
179750 145549 72940.2
179966 123774 60773.8
181615 163055 106112
183998 151774 119774
83179 159161 70757.8
81493.8 145774 66773.8
80633 157490 71469
76773.8 154774 85589.8
143138 195658 112755
151774 194774 133166
77660.6 156067 83903
75665.8 158774 100774
105223 192419 109418
90773.8 187774 112662
146419 195322 120511
135966 196774 133774
160026 191154 107903
169978 186774 116774
179365 127040 60613.8
178006 116774 49773.8
116554 196962 122605
115774 199986 139774
93382.2 187348 111662
81537.8 175774 111774
183349 152720 117485
183962 136774 129774
179481 132593 64311.8
176774 130774 43905.8
149060 195133 130502
145774 195970 145774
163011 189840 110564
160774 192062 125774
84462.6 176939 112443
79585.8 161774 116774
182721 137307 77723.8
183998 137774 97773.8
178414 119854 53025.8
183258 120774 39773.8
177967 175023 105581
177890 176774 118774
183803 152058 119087
183998 155774 141774
183472 142468 121075
183262 129774 119774
183490 138767 128549
181814 136774 142774
76743 157312 91663.4
79773.8 139602 105774
81999.4 149790 67969
79553.8 136774 81773.8
114773 198300 136818
107122 193774 151774
81645.4 146979 67132.2
85477.8 128774 67773.8
81135 163827 114548
79545.8 151774 113774
145261 196028 143190
135774 198002 156774
115877 197470 128006
98305.8 192774 135774
89279 182560 112021
85773.8 174774 128898
183820 137372 129407
178066 122774 133774
150959 194881 132367
163774 191222 140774
102931 192713 113419
97773.8 193222 122774
181421 136752 140921
175774 132774 156970
137021 196770 133391
130774 198006 143774
110716 195498 147799
113666 194774 160774
183385 153762 140249
181974 151774 155774
108200 194291 150581
103006 183774 157774
84708.2 134025 65729.4
89561.8 120774 54773.8
178477 175041 115276
181886 168774 126774
80298.6 162718 115750
83557.8 163774 127774
182369 130931 120326
179774 115774 119886
85716.6 129212 67034.6
89545.8 115774 68773.8
138615 197361 154646
137774 197230 167774
81112.6 138419 80436.2
82325.8 127774 92773.8
178770 126325 134616
174006 118774 141774
80693.8 154592 115182
83773.8 141774 121898
177773 176729 118530
175258 181774 127774
83299.4 139984 66374.6
87561.8 133774 49773.8
176579 122851 137909
173774 112366 133774
87938.2 175585 126543
89497.8 168774 139774
174778 119997 140614
170442 121774 153774
81299 141030 104622
85497.8 130774 112774
180136 119224 118035
178102 110774 112774
88803.4 122672 58151.8
93505.8 108774 57773.8
175169 132609 155631
168774 128774 165946
89029.8 170817 135805
93501.8 176774 144774
170007 121067 152855
165174 120774 161774
83229 162509 125787
87493.8 156774 136774
181807 153151 153122
178062 157774 166774
88909.8 179033 122473
91525.8 182774 133774
83083.8 129511 88455.8
90773.8 113570 92773.8
104236 184793 156614
101774 170774 163362
112789 193347 158348
114774 182774 175882
175592 132724 156568
175774 139578 163774
111503 194681 151808
122774 199998 157774
179227 155176 162416
177026 150774 169774
102512 174980 161337
96773.8 166774 155886
139396 196382 163274
146774 190774 175950
88467 118352 91478.2
90361.8 115774 103774
111519 184305 167669
108774 177106 171774
178041 112587 115316
171422 97773.8 114774
89641.8 116753 99101.4
86773.8 123658 106774
176408 179728 126219
177182 179774 139774
174615 115511 135014
164774 106270 141774
89523.8 117693 69284.2
96773.8 103562 75773.8
142736 196535 147544
148774 193774 158806
169269 129529 164397
159974 126774 174774
93076.2 110491 71064.2
96773.8 101578 65773.8
144560 192456 172147
139774 193990 183774
171663 112739 137042
166774 99773.8 129130
178003 157497 166300
174062 163774 176774
84781.8 143261 121192
91773.8 128774 128970
183814 155170 141316
181998 165774 146774
175719 137522 161612
169774 138774 174970
89289.4 117233 96814.6
97773.8 106234 101774
175959 106934 113974
175930 100774 106774
176922 151962 169187
172038 150774 179774
102371 171322 163292
103774 161774 169082
166841 108211 140354
160774 111510 152774
92907.8 112351 97307.8
98773.8 103574 90773.8
113797 183233 173418
114774 171774 181970
173142 100903 113310
169774 91989.8 106774
90892.2 115573 102535
96773.8 110774 111950
162794 190575 140156
171258 185774 145774
92656.6 114133 105360
91773.8 118774 114886
147857 194402 153959
160774 189782 158774
174402 161765 175995
170774 163774 185962
142598 193948 168775
152774 189882 167774
96444.6 103032 67342.2
101554 94773.8 66773.8
181473 164901 146707
178050 174774 152774
171633 164191 182727
167842 171774 187774
91496.2 132135 128946
98773.8 124222 137774
167107 100925 128833
163774 92773.8 121290
99000.2 104199 92304.6
106286 95773.8 88773.8
114227 172004 180703
113658 162774 184774
169731 92894.2 106905
165774 85033.8 99773.8
95538.6 111782 109973
104338 101774 111774
175946 101877 107318
175990 96773.8 96773.8
162919 128578 172899
157774 132774 187326
100071 96824.2 65852.6
103738 88773.8 58773.8
168228 89907.4 104195
171774 89525.8 95773.8
172481 151095 179015
165786 150774 194774
104333 162793 168430
107774 151774 175026
169735 149956 184496
165774 143578 187774
95426.2 127862 133713
97705.8 131774 143774
168296 169866 187404
163774 172774 194866
96403.4 111076 111357
103774 108282 123774
159571 189388 156572
169290 184774 157774
92132.6 129637 128508
95505.8 120774 125774
168679 90803.4 105008
159774 83689.8 107774
101171 94409 63729
109122 85773.8 67773.8
104791 97348.6 88607
109658 90773.8 80773.8
113789 163866 183675
113498 152774 184774
102583 103609 110307
108774 95581.8 104774
167467 185040 158149
175014 177774 162774
96675 102014 66244.2
98317.8 97773.8 54773.8
146110 191279 174809
155774 184774 177322
165429 86361.8 100975
155774 79549.8 94773.8
96959.8 131813 141757
96773.8 139594 148774
176326 97567 97067.8
177242 93773.8 85773.8
103811 102324 111334
112302 98773.8 121774
113615 154229 184078
113774 141774 181926
169829 88884.6 98150.6
168774 83773.8 86885.8
165131 171901 192627
153774 179994 191774
162310 83775 97732.6
161774 81021.8 89773.8
108047 86980.2 66261.8
116774 77737.8 64773.8
109383 100717 119660
112678 103774 132774
97744.2 124884 135748
101702 117774 135774
113533 153210 184565
117554 148774 191774
97219.8 139114 148489
98153.8 146774 155774
163835 187040 157424
166774 182774 169946
97499.8 141412 150674
93773.8 149774 149026
174164 163171 176540
173774 171970 173774
97141.8 136924 146469
102774 136774 157890
176818 93232.6 86867.8
176774 87505.8 76773.8
113704 143519 180892
113706 133774 175774
167991 83729.4 88245
164774 77773.8 78865.8
113753 142297 181616
119774 137578 189774
113705 139816 178947
107774 138774 168862
97058.2 134573 144302
92773.8 142774 142026
113330 102785 130817
118774 103738 140774
115559 140881 184063
119546 131774 182774
110027 139170 172694
111538 129774 166774
112233 99166.2 121705
120774 95609.8 127774
155315 185455 177204
165182 179774 179774
166367 78961.8 80265.4
169946 74773.8 70773.8
117479 149132 190974
124774 142774 199962
116845 97245.8 124982
124774 90773.8 119962
116513 104249 138129
116230 109774 146774
108450 138893 170011
103562 147774 165774
94056.2 139247 141865
88773.8 142774 133890
90376.6 142519 136665
87017.8 149774 133774
118755 103963 140617
125586 103774 147774
118082 104049 139870
129774 97705.8 139774
124323 91725 120956
132226 86773.8 117774
115495 108960 144168
110278 117774 149774
101130 119843 136465
107510 114774 140774
124188 104385 147114
128774 107774 156862
94642.6 148949 148775
91553.8 158774 145774
130589 87581.8 117513
135774 82997.8 109774
110749 117193 148820
105998 125774 152774
131735 87016.2 117695
141774 85525.8 119774
111401 130821 166763
112774 122774 159970
132974 85473.4 113953
128502 83773.8 105774
116351 109701 146565
119774 112218 154774
129843 84283.8 108227
134774 81541.8 99773.8
126522 98955.4 138433
135774 90773.8 129954
98064.2 146726 154973
98773.8 156774 159886
133295 82364.2 102310
129774 82153.8 94773.8
118821 112176 153397
119566 116774 160774
119751 115953 160042
122330 119774 169774
127586 108089 156102
129774 112774 165290
122469 119391 169319
125774 122774 179270
140248 220291 27281
143774 212006 33773.8
136314 215025 30143.8
126774 209934 32773.8
143242 213971 33420.6
146774 210062 43773.8
144299 208878 50304.6
147774 209026 50773.8
132184 208104 53354.2
125774 205950 54773.8
133427 206883 55993.8
140774 206774 59781.8
126665 205947 54837.8
119774 201774 57969.8
118329 203705 49096.6
115774 201958 52773.8
139243 206383 59597.8
144006 203774 65773.8
152479 200733 62378.6
157990 196774 63773.8
[...]
CELL_DATA 1581
SCALARS radius float
LOOKUP_TABLE default
2.122e-314
100
100
1.16588
0.152616
1.16448
1.01235
0.809911
1.16195
0.213498
0.140812
1.01144
0.0812183
0.809019
1.00689
0.216426
0.763107
0.438619
1.00355
0.212253
0.146396
0.760456
0.738761
0.846926
0.0555121
0.738657
0.742287
0.583331
0.0764306
0.436687
0.756682
0.111124
0.0873906
0.732656
0.192132
0.42392
0.0597339
0.742158
0.413644
0.104388
0.226532
0.749307
0.595429
0.581569
0.0557776
0.58049
0.0917502
0.184888
0.71588
0.287969
0.308639
0.54896
0.0679935
0.224471
0.260775
0.738019
0.109927
0.715015
0.196803
0.249798
0.0572233
0.595253
0.577637
0.145866
0.0441388
0.145046
0.29693
0.147681
0.181723
0.380631
0.316883
0.278479
0.127071
0.732395
0.331728
0.688851
0.109201
0.327735
0.0987445
0.528535
0.307256
0.158303
0.151667
0.573192
0.168904
0.519622
0.0934768
0.272725
0.108614
0.283295
0.0660536
0.594
0.0823567
0.571757
0.491087
0.648978
0.28852
0.198338
0.30498
0.478662
0.181195
0.166814
0.130783
0.532399
0.18444
0.235587
0.130006
0.273858
0.0722588
0.258913
0.0601575
0.490786
0.538946
0.482057
0.452615
0.399627
0.188735
0.281404
0.615512
0.452676
0.17137
0.577817
0.0665617
0.450293
0.239317
0.511719
0.0893209
0.475676
0.582798
0.226596
0.535017
0.323215
0.0622324
0.452223
0.299725
0.112953
0.0498562
0.128087
0.18839
0.369974
0.0883855
0.160417
0.392589
0.506336
0.205277
0.464983
0.0771661
0.391593
0.39823
0.280392
0.236915
0.159512
0.0783624
0.236482
0.0761206
0.479762
0.0654337
0.39764
0.372106
0.226535
0.0818118
0.61503
0.446217
0.135367
0.140343
0.508176
0.0508316
0.236133
0.440024
0.182764
0.303948
0.393146
0.0988454
0.271683
0.0886989
0.301409
0.179136
0.175552
0.465674
0.145018
0.199483
0.210445
0.224082
0.32325
0.188433
0.223537
0.0921314
0.298512
0.217595
0.14297
0.0957139
0.460738
0.275976
0.130483
0.609476
0.174543
0.0857883
0.387259
0.181778
0.493824
0.0662716
0.222133
0.129603
0.50349
0.370338
0.351846
0.341682
0.232597
0.356814
0.182661
0.104237
0.606157
0.486827
0.15552
0.0973208
0.464252
0.571802
0.181522
0.100511
0.229899
0.10526
0.390615
0.084877
0.39328
0.398217
0.35432
0.101999
0.319828
0.37689
0.163886
0.28066
0.254053
0.251594
0.352162
0.0678177
0.369578
0.48922
0.192176
0.0664524
0.202929
0.119958
0.2098
0.577836
0.309969
0.438
0.244215
0.145396
0.343367
0.324717
0.178126
0.119075
0.210123
0.295924
0.156969
0.0941623
0.485649
0.108848
0.435748
0.0759364
0.571355
0.0884341
0.230663
0.128205
0.569196
0.112421
0.350506
0.332582
0.206884
0.33768
0.190591
0.324223
0.268944
0.0846726
0.197891
0.31734
0.169033
0.452217
0.262716
0.290225
0.209443
0.144966
0.27602
0.0849429
0.480431
0.0809438
0.431413
0.180413
0.563089
0.0865636
0.240534
0.240471
0.195291
0.107863
0.320194
0.252844
0.375618
0.0879055
0.325115
0.100811
0.24495
0.270021
0.244838
0.409342
0.288003
0.246377
0.24175
0.0700036
0.176829
0.33507
0.152736
0.0845582
0.259763
0.410473
0.223295
0.145639
0.309818
0.113303
0.24412
0.464609
0.194909
0.137678
0.560332
0.17071
0.303496
0.0727453
0.267159
0.0984796
0.276559
0.107533
0.246187
0.393986
0.19516
0.0934468
0.235738
0.0728278
0.559921
0.264094
0.434222
0.354827
0.202648
0.150633
0.225963
0.173099
0.213518
0.119123
0.294691
0.423962
0.458237
0.110993
0.272157
0.0728572
0.262232
0.0909234
0.321821
0.320526
0.167377
0.273508
0.234348
0.0799886
0.202819
0.324222
0.222305
0.128404
0.222286
0.294841
0.367093
0.112331
0.351034
0.0839582
0.292554
0.34391
0.2064
0.355869
0.252447
0.101733
0.452548
0.167254
0.257182
0.254848
0.288946
0.0634327
0.423488
0.103202
0.249247
0.211231
0.266245
0.0969072
0.257745
0.123587
0.41995
0.333615
0.369612
0.205214
0.199244
0.142203
0.236409
0.162599
0.207343
0.0649633
0.293672
0.294727
0.225911
0.413427
0.150338
0.22278
0.340383
0.214166
0.217826
0.173128
0.272064
0.220613
0.213436
0.28944
0.359381
0.122079
0.209821
0.210211
0.246397
0.127697
0.280381
0.314692
0.247991
0.0668164
0.339522
0.141643
0.289545
0.144323
0.204271
0.116263
0.224393
0.21322
0.244301
0.116157
0.334929
0.116098
0.330213
0.138249
0.227229
0.122714
0.302384
1.16535
0.129216
0.0606508
0.149354
0.0774082
0.1192
0.809292
0.106797
0.0496218
0.138727
0.147067
1.01041
0.0660579
0.116512
0.172017
0.146178
0.0696674
0.14166
0.808639
0.0906907
0.0695145
0.168147
0.193684
0.127849
0.0779451
0.133311
0.109401
0.151026
0.045953
0.192818
0.159801
0.145621
0.17861
0.156925
0.75748
0.172613
0.128515
0.125108
0.0736046
0.168032
0.058727
0.176468
0.733071
0.20198
0.180088
0.121532
0.0762128
0.162634
0.756146
0.0972408
0.102408
0.582277
0.748716
0.0998368
0.144779
0.135006
0.415848
0.16223
0.0951852
0.150946
0.0603361
0.103499
0.580721
0.0950827
0.0572927
0.178134
0.529682
0.256237
0.0819971
0.134216
0.101924
0.731584
0.393965
0.212738
0.713595
0.12955
0.57671
0.0974889
0.0608494
0.255088
0.0572886
0.179805
0.145966
0.147518
0.13703
0.145487
0.16705
0.143594
0.194548
0.131319
0.0949601
0.129966
0.15616
0.202722
0.0900542
0.109738
0.07884
0.174603
0.0994423
0.249948
0.0966046
0.186261
0.276338
0.171878
0.143726
0.157648
0.116021
0.193095
0.134957
0.196573
0.0886557
0.163625
0.0893789
0.145718
0.376608
0.120046
0.13303
0.236697
0.731715
0.103018
0.0894724
0.154172
0.0771704
0.119692
0.268467
0.130968
0.130557
0.108106
0.0711899
0.123336
0.118679
0.168574
0.525504
0.136185
0.206154
0.117814
0.101577
0.217177
0.450777
0.105154
0.219606
0.213225
0.0834202
0.178567
0.528604
0.147433
0.645182
0.115079
0.154574
0.160168
0.0637008
0.154787
0.6464
0.148039
0.477954
0.208257
0.155786
0.180833
0.0950835
0.180321
0.0919464
0.135121
0.171418
0.249342
0.203806
0.146886
0.223462
0.212949
0.124794
0.145642
0.575213
0.137431
0.08269
0.208709
0.126298
0.238035
0.132653
0.153469
0.0698274
0.134327
0.113931
0.39398
0.303967
0.167437
0.385588
0.156395
0.234917
0.183094
0.285375
0.169209
0.0977895
0.142444
0.0642085
0.18587
0.113942
0.146785
0.119276
0.189162
0.156309
0.36043
0.267318
0.198519
0.258423
0.168525
0.173194
0.185954
0.388657
0.110263
0.614211
0.0975478
0.0968691
0.155856
0.0975412
0.180088
0.0680196
0.169624
0.498912
0.148279
0.470315
0.173478
0.50324
0.155874
0.0826405
0.193626
0.0863673
0.179434
0.109306
0.197693
0.0586887
0.197775
0.374382
0.154863
0.138887
0.136471
0.261396
0.129914
0.163444
0.117933
0.462111
0.122794
0.383014
0.123616
0.101088
0.608547
0.49206
0.108743
0.120161
0.457997
0.124956
0.157264
0.0765706
0.137522
0.152035
0.121716
0.116408
0.140759
0.119218
0.122089
0.0935963
0.143699
0.0572314
0.196081
0.145454
0.184129
0.131597
0.214521
0.607183
0.114784
0.129796
0.15765
0.0650407
0.180316
0.386948
0.11948
0.152986
0.234023
0.194523
0.293778
0.480028
0.186407
0.171961
0.161244
0.134691
0.255221
0.222167
0.17054
0.145152
0.150648
0.064117
0.177895
0.288753
0.122511
0.194911
0.173015
0.322793
0.180669
0.0797665
0.187482
0.103842
0.156598
0.0674329
0.14039
0.114791
0.483502
0.123067
0.251626
0.108069
0.167733
0.1515
0.210591
0.11344
0.134031
0.0616553
0.119561
0.132802
0.238637
0.0851592
0.181432
0.216714
0.242542
0.0727586
0.13858
0.164368
0.17578
0.0921376
0.1579
0.146766
0.191444
0.278176
0.133191
0.152403
0.252758
0.131113
0.1727
0.203821
0.175855
0.289627
0.215036
0.138897
0.237923
0.155905
0.221773
0.105983
0.200492
0.112578
0.176631
0.168924
0.21441
0.150851
0.185893
0.233259
0.169111
0.084662
0.163466
0.146687
0.133381
0.0751938
0.206161
0.195735
0.208971
0.143999
0.179426
0.146299
0.162637
0.0941244
0.236897
0.0837228
0.197768
0.127661
0.219746
0.166059
0.187145
0.421903
0.189196
0.171919
0.211544
0.122862
0.180499
0.0647993
0.159134
0.144638
0.217357
0.173467
0.269862
0.454256
0.135471
0.25501
0.165939
0.100812
0.265089
0.170444
0.16952
0.181148
0.269837
0.0691003
0.19197
0.27888
0.149624
0.171485
0.181138
0.304733
0.225428
0.0964089
0.183496
0.101917
0.264901
0.12123
0.187211
0.138123
0.206617
0.195186
0.2004
0.444162
0.136995
0.065695
0.264905
0.176618
0.225727
0.185599
0.191376
0.114071
0.194063
0.161933
0.242969
0.131446
0.209767
0.094648
0.191853
0.448465
0.135473
0.07656
0.143405
0.167283
0.177807
0.0913533
0.164197
0.0855543
0.174855
0.300429
0.159377
0.243146
0.179288
0.170319
0.175383
0.171765
0.161616
0.0621517
0.245072
0.0997911
0.205902
0.224255
0.220794
0.120961
0.238001
0.153077
0.223285
0.158317
0.21189
0.0903418
0.164381
0.0894051
0.2184
0.114501
0.235612
0.308976
0.186718
0.25283
0.225634
1.16435
0.0806661
0.0910804
0.137082
0.103212
0.113871
0.0823095
0.20934
0.123199
0.09283
0.061159
0.0996433
0.201764
0.0986637
1.01021
0.0839564
1.0067
0.0833568
0.103928
0.0988947
0.210712
0.0921304
0.0878479
0.134729
0.76226
0.113905
0.437467
0.087228
0.1121
0.118862
0.065697
0.106097
0.115939
0.132114
0.196916
0.0845507
0.0799907
0.121511
0.738146
0.0941393
0.0530052
0.121853
0.732243
0.0873233
0.0565353
0.106015
0.0587509
0.13119
0.731087
0.0927013
0.0737244
0.111718
0.059667
0.0974375
0.580662
0.117875
0.143727
0.109157
0.218255
0.0970413
0.0619584
0.111868
0.741565
0.0992716
0.579724
0.0918204
0.0689487
0.12465
0.285248
0.0875264
0.23608
0.134435
0.111491
0.148516
0.0846942
0.737647
0.733668
0.186245
0.104233
0.128933
0.229825
0.100608
0.0592477
0.130484
0.0853631
0.180064
0.107759
0.166153
0.0683012
0.126735
0.0960871
0.12752
0.190258
0.113033
0.0642864
0.141579
0.0687779
0.140171
0.0806854
0.159552
0.136725
0.166836
0.108924
0.14043
0.0929857
0.165328
0.224345
0.125349
0.688204
0.0972747
0.0752739
0.128652
0.0779803
0.151012
0.115461
0.145881
0.594272
0.101352
0.0794732
0.132684
0.0522203
0.105066
0.0617822
0.143985
0.320669
0.130616
0.516811
0.131327
0.102547
0.128591
0.0887934
0.115187
0.160916
0.150796
0.117067
0.159914
0.0919731
0.120455
0.162667
0.181096
0.275081
0.113668
0.476723
0.109899
0.0870907
0.132467
0.119483
0.126051
0.0758254
0.176551
0.13018
0.154068
0.0865552
0.146316
0.0776378
0.121576
0.320037
0.0995315
0.4804
0.104793
0.11434
0.164094
0.0949624
0.130705
0.215829
0.144568
0.130848
0.189926
0.397131
0.105921
0.163834
0.208697
0.112369
0.120514
0.108582
0.150574
0.450332
0.104924
0.167446
0.120168
0.0843027
0.12592
0.120927
0.145438
0.129559
0.167224
0.069939
0.130051
0.478055
0.105521
0.572326
0.09482
0.108734
0.136324
0.0807196
0.13382
0.355764
0.12153
0.0751295
0.138422
0.068262
0.129314
0.394593
0.112773
0.124749
0.128407
0.079989
0.142639
0.0773509
0.162908
0.135971
0.133262
0.0925657
0.135122
0.501902
0.106385
0.144722
0.286713
0.103917
0.162463
0.137632
0.151646
0.093066
0.152079
0.116013
0.129118
0.133485
0.15035
0.0540824
0.114013
0.390709
0.105826
0.108505
0.166134
0.146989
0.165829
0.142451
0.163473
0.0572576
0.163521
0.0670588
0.147143
0.12851
0.121551
0.180629
0.11806
0.0621126
0.116067
0.0555553
0.108283
0.455245
0.119852
0.142957
0.155626
0.120611
0.347381
0.113825
0.168309
0.461972
0.113636
0.0710672
0.15052
0.261079
0.179394
0.0726113
0.144801
0.101173
0.216404
0.340652
0.133683
0.0963637
0.167823
0.0582765
0.176022
0.132659
0.171294
0.16897
0.174462
0.214408
0.134185
0.181254
0.148576
0.119439
0.155361
0.096642
0.169511
0.120844
0.138157
0.0904533
0.167403
0.120953
0.178408
0.357373
0.16913
0.117066
0.129209
0.0977213
0.170587
0.277433
0.158754
0.250514
0.204669
0.147159
0.217445
0.153273
0.170686
0.17067
0.205026
0.481314
0.115165
0.432361
0.124173
0.0828358
0.163917
0.0954762
0.139122
0.112948
0.478341
0.327243
0.175865
0.105596
0.164511
0.307528
0.142171
0.345331
0.123406
0.114567
0.149268
0.100531
0.175524
0.136623
0.142424
0.475772
0.12059
0.130784
0.265864
0.134491
0.164981
0.251998
0.14077
0.0996862
0.189072
0.153899
0.190983
0.209914
0.171207
0.301041
0.134925
0.167597
0.172681
0.167245
0.184001
0.556588
0.146066
0.0996091
0.128625
0.103342
0.148352
0.0948184
0.158527
0.143134
0.186955
0.169606
0.169332
0.146417
0.183715
0.129122
0.174857
0.101304
0.176676
0.291905
0.145533
0.0983311
0.201446
0.138275
0.176848
0.341292
0.151862
0.175511
0.236464
0.190722
0.144319
0.104735
0.177828
0.0743865
0.164605
0.100319
0.156436
0.173452
0.200029
0.237535
0.154948
0.190216
0.227061
1.12381
0.101067
1.123
0.151523
1.08271
0.319611
1.07251
0.152209
1.06984
0.520484
1.08442
0.067077
1.06976
0.132014
0.517637
0.193409
1.06765
0.0937909
0.185758
0.132232
0.514745
0.114223
0.969218
0.966674
0.192665
0.120214
0.51255
0.969747
0.673143
0.499014
0.2182
0.123559
0.966001
0.131429
0.668462
0.670151
0.159387
0.101777
0.497599
0.13022
0.66681
0.0918848
0.963762
0.166758
0.491276
0.0997017
0.666066
0.96404
0.176273
0.463778
0.265977
0.122985
0.963094
0.20547
0.449925
0.108666
0.447803
0.337606
0.37161
0.102538
0.182452
0.60917
0.87384
0.109552
0.607986
0.116681
0.664871
0.130716
0.201286
0.159709
0.325245
0.129282
0.366319
0.866952
0.250169
0.105068
0.606939
0.183823
0.864188
0.292933
0.583283
0.117766
0.258047
0.168565
0.273002
0.0930978
0.582492
0.0927659
0.863832
0.22513
0.335446
0.145171
0.662556
0.193358
0.235841
0.279637
0.853951
0.194756
0.656898
0.17398
0.307724
0.236727
0.290359
0.101037
0.24455
0.114041
0.273167
0.130532
0.580298
0.123602
0.655436
0.168811
0.214105
0.114205
0.85327
0.381748
0.609067
0.134166
0.577898
0.320864
0.282722
0.162417
0.252504
0.147175
0.851808
0.811542
0.437202
0.0979234
0.811067
0.152414
0.526359
0.0892207
0.318548
0.14932
0.60606
0.184833
0.253466
0.147533
0.603132
0.138286
0.809724
0.167192
0.428895
0.157394
0.521625
0.530585
0.352036
0.175182
0.336938
0.466903
0.342413
0.219092
0.279384
0.137061
0.808413
0.112
0.27325
0.296725
0.422947
0.193909
0.415254
0.779038
0.381503
0.262755
0.586029
0.256569
0.27747
0.117528
0.254671
0.135883
0.418219
0.101093
0.77847
0.205796
0.315587
0.284252
0.36885
0.117252
0.58446
0.177377
0.404172
0.165404
0.775973
0.191784
0.364611
0.283135
0.561414
0.645979
0.582533
0.197412
0.246645
0.184005
0.391037
0.135205
0.558788
0.250764
0.353102
0.190198
0.346472
0.120193
0.644589
0.600139
0.372467
0.137963
0.579943
0.231775
0.307727
0.228143
0.545812
0.128043
0.59819
0.230933
0.531669
0.222194
0.320932
0.138396
0.365986
0.258365
0.316736
0.133122
0.595984
0.152091
0.576435
0.484227
0.461283
0.221708
0.518494
0.150923
0.479289
0.199714
0.56833
0.235744
0.501712
0.194461
0.449463
0.282017
0.54417
0.352286
0.489681
0.168548
0.338925
0.296548
0.437992
0.271448
0.413688
0.27229
0.473411
0.205905
0.477232
0.312149
0.422997
0.210984
0.421024
0.34528
0.407215
1.12327
0.12655
1.0837
0.136619
1.08189
0.142197
0.140917
0.310206
0.135019
1.0718
0.135646
0.301307
0.164424
0.284012
1.07087
0.147177
0.073162
0.282384
0.127241
0.273496
0.127679
0.263887
0.194109
0.222817
