# vtk DataFile Version 3.0
Tree
ASCII
DATASET POLYDATA
POINTS 1582 float
162774 225274 273.8
162774 225274 10273.8
141774 225774 23773.8
135774 212774 31961.8
137574 216674 29505.4
143774 209774 53017.8
136314 213944 31225
120774 205774 48965.8
140420 210517 48635.8
131774 201774 67061.8
137826 207894 54163.4
153774 197774 71965.8
122107 205438 45755
107774 195238 57773.8
131792 202802 63627
116774 193818 74773.8
131779 202082 66031.4
133774 195814 85773.8
151753 198126 67272.2
170098 180774 72773.8
161659 188756 70243
168026 185774 91773.8
108720 194788 56167.8
94773.8 181974 65773.8
116871 193856 74429.4
103774 185994 83773.8
131555 197116 81703.4
121774 193026 94773.8
167124 181966 70969.4
174774 164774 67657.8
133108 196205 84552.6
139774 195998 102774
171695 169951 66873
171910 158774 53773.8
169206 181131 72232.6
179834 169774 87773.8
176957 173260 85957.8
179782 172774 104774
96859.4 183194 63740.2
82773.8 165974 69773.8
173663 165174 67553.8
178050 148774 69773.8
88126.2 172517 67481
82773.8 169958 85773.8
123855 194375 93687.4
117774 194774 112222
171881 159271 55445.4
172054 147774 44773.8
119961 194143 100244
107774 191946 104774
139330 195775 95078.6
157078 193774 103774
178971 170820 87229
182002 154774 84773.8
177121 151102 68474.6
179874 133774 64773.8
179157 170743 97523
183998 156774 110774
85067 172157 81331.4
85773.8 179270 99773.8
117385 194775 110465
110774 196002 122774
117657 194774 111695
130774 196002 122774
148914 194695 99774.2
149774 195998 118774
162099 188947 80879
157774 191994 89773.8
178387 143131 66772.2
183998 132774 79773.8
179094 135649 64213.4
178018 123774 55773.8
182304 162083 108516
183998 159774 127774
83947 166136 69630.6
77773.8 150774 74481.8
148842 195646 116164
144774 195998 136774
81601.4 160298 71473.8
82773.8 145774 60257.8
183134 157661 110742
183998 143774 118774
155373 193190 103594
169974 186774 114774
83461.8 170618 84441
75773.8 156774 101066
80057.4 165374 93666.2
78365.8 167774 108774
78772.6 162794 95886.2
76773.8 147590 89773.8
181220 158850 87173
183998 143774 95773.8
178341 127336 58305.8
177774 128774 43253.8
114317 196034 120001
115774 199998 140774
84621.8 177270 98830.2
83653.8 180774 113774
149494 195892 117991
157774 193978 127774
116687 198016 131561
126774 198018 138774
146442 195802 135417
145938 195774 147774
167205 186363 111756
176774 177974 116774
183412 147235 118623
181974 133774 137774
183822 144812 118729
183774 130446 119774
116048 199403 138010
105774 194774 147134
82395.8 149919 66133
83673.8 130774 67773.8
183456 159393 126091
183998 155774 143774
183765 155930 135750
183998 145774 140774
182213 137198 127924
180774 126774 129954
144691 196095 144429
135774 198002 154774
85129.4 180735 109943
91773.8 189254 123774
77809.4 149761 90584.2
80317.8 133774 83773.8
181591 134838 136820
178774 134774 149958
78003 158304 100230
80773.8 145774 113966
83879 134963 66070.6
87605.8 123774 58773.8
183637 154989 142085
182002 149774 151774
156142 193962 127781
163774 191186 141774
79499.4 151538 107647
80773.8 136258 103774
181859 134093 137488
176022 122774 141774
87122.6 183290 114093
87505.8 173774 132774
178275 133619 148222
173774 130578 158774
109230 195134 145639
104774 185774 159266
86207.4 176102 121847
83525.8 165774 125774
80450.2 136370 87353
83657.8 124774 88773.8
107537 191577 150817
114774 193774 163322
85295.4 130711 63297.8
88773.8 117522 70773.8
139175 197227 152973
137774 197230 167774
90798.2 187325 122700
93773.8 186974 134774
180997 129436 128076
177950 113774 122774
105100 186270 157056
101774 178126 159774
177782 125475 139294
174002 113774 134774
172372 181833 114466
175258 181774 128774
87551.4 124387 59015.4
91673.8 114774 51773.8
178888 117723 123141
178774 111774 115170
80817 146572 111502
84997.8 133774 115774
176205 132220 153076
168774 120774 153986
88181.4 174425 131772
91773.8 172774 144806
173590 130629 158308
167774 127774 166434
83302.2 146245 60846.2
87493.8 138774 49773.8
176044 122931 141127
170774 115598 144774
182492 151338 148867
179222 156774 165774
85019.8 168129 125939
87493.8 156774 136774
176826 132640 151620
177774 140774 160898
92195 172890 144189
96357.8 171774 153774
83788.2 126335 88110.2
90773.8 113566 86773.8
111662 191429 159614
114774 183774 175242
173748 114998 135436
168774 104774 131974
83697 125242 88574.6
86357.8 122774 103774
145564 195870 146770
153774 192022 153774
85559.4 123514 99214.2
90265.8 115774 101774
90107.4 118427 54525.4
95657.8 102774 62773.8
102641 178735 159600
101554 166774 163774
178123 112617 118122
173774 99525.8 111774
89384.2 115923 85874.6
94321.8 105774 77773.8
115856 199819 139945
119774 199998 153774
168249 127845 164847
159950 122774 170774
84677.8 136364 115881
90773.8 127590 124774
138852 196759 165738
142774 193874 181774
176526 136856 158178
171774 137774 169970
108045 192644 149264
98773.8 183774 149326
169660 123399 154691
160774 117454 160774
83519.4 139426 114567
87501.8 137774 126774
174875 180953 127835
177190 178774 141774
170623 107652 131898
169546 99773.8 122774
178823 156995 163444
174062 163774 176774
113840 186071 170553
109542 172774 173774
183889 155538 143267
181998 166774 146774
171937 136826 168034
163774 132774 178886
90357 114273 86504.2
95773.8 106306 94773.8
136248 197887 154835
126774 200002 161774
170965 116902 144629
161974 110774 150774
177014 159571 168509
172038 150774 179774
176310 179602 136477
171258 185774 143774
171823 137489 169389
172774 144774 173958
102443 167801 163278
103486 156774 166774
173349 101265 113805
167286 90773.8 111774
93282.2 109971 90969.8
99773.8 100774 86861.8
139027 197011 158845
149974 191774 165774
89324.6 118262 102213
97997.8 109774 112774
173646 100047 112383
173774 94773.8 102890
87969.4 131626 120683
91773.8 119774 116126
177004 178503 141180
178062 174774 150774
174042 163213 176581
169774 167774 187890
96205 103731 61634.2
102370 92773.8 65773.8
170511 97243.4 114116
164774 92773.8 119946
99142.2 98221.8 62587.4
101774 91773.8 58093.8
168321 92825.8 111521
164774 85561.8 102774
90239.4 129717 124397
98773.8 125774 139326
112123 177231 174095
114774 163774 185958
164053 133594 178490
157774 132230 186774
112470 171294 177673
109494 160774 176774
171876 151349 178184
165774 142774 186970
172414 184059 143064
169774 185430 152774
169069 147404 182225
165774 151774 195062
96817 110666 109643
106290 99773.8 110774
168737 105122 131836
161774 96773.8 131266
99393.4 102137 88378.6
109578 92773.8 89773.8
110176 161340 176781
108530 150774 175774
173163 95095.8 104135
171774 88389.8 93773.8
98081.8 110160 112466
103574 108774 123774
147188 192628 165303
151186 187774 175774
90613.4 128228 124661
95773.8 119774 126130
169835 167522 185520
161982 174774 192774
102277 93560.6 64846.2
109774 84773.8 67113.8
105708 96331.8 89243.8
109578 90773.8 79773.8
96609.4 127819 136645
99773.8 132774 148970
164487 86713 104715
155886 79773.8 99773.8
113981 164544 183695
113554 154774 185774
109024 153944 176076
112774 146774 181890
171469 183909 150293
173774 178774 164882
101926 109190 120381
110774 101506 122774
172413 91474.6 98539.8
176774 95521.8 88773.8
93771.8 109496 57197
97553.8 99773.8 51773.8
172137 89345.8 94181.8
172774 87505.8 84773.8
164338 172598 190598
156774 181194 185774
161219 84075.8 102838
161774 81553.8 92773.8
108589 86026.2 65664.2
115774 76773.8 61133.8
162184 82233 94371
165774 81541.8 84773.8
98281.4 132579 145049
97025.8 143774 151774
108119 103811 122056
112774 103774 132890
111049 150072 179215
111610 137774 174774
98124.6 126387 138522
102326 117774 136774
114328 158555 185921
117774 151774 193206
98571.4 136469 148682
102774 138774 158030
172345 181957 155837
163774 185774 166094
109888 103797 126173
117774 97773.8 127990
112811 147072 181564
118342 138774 187774
113619 79549.4 62493
122774 76773.8 67981.8
165669 81621 86245
171950 80773.8 76773.8
167054 183878 163606
165774 181774 173966
171447 81885 78684.6
177334 83773.8 72773.8
87826.6 157607 134707
91509.8 146774 141774
114777 100063 127299
118330 93773.8 119774
171598 81551.4 78111.4
163774 74773.8 73969.8
111640 139469 174515
112358 129774 168774
112835 104060 132537
118774 105774 143322
117543 152345 191893
122774 142774 197882
102433 138316 157487
106358 139774 166774
116683 141263 185911
121702 127774 181774
118413 132765 180785
118294 127774 175774
165827 181292 173484
164774 178774 181946
116179 106014 140170
115086 111774 147774
116875 98460.6 127783
124774 98773.8 137882
118493 105476 142058
126222 102774 145774
117264 95660.6 122031
130230 88773.8 121774
125003 98683 136638
130774 98773.8 141894
125908 90725.4 120604
131774 85497.8 112774
114532 110321 144504
107774 119090 147774
123903 103585 144659
129774 106774 155290
88931.4 154357 136827
91773.8 155774 147026
129913 89177 121400
138774 86773.8 122026
136116 87494.6 121838
140774 83493.8 113774
111942 131627 169064
110774 124310 159774
111124 126505 162561
105462 128774 154774
130330 86527.8 113654
132774 82773.8 103958
139843 84012.6 114147
142774 80773.8 105890
131774 88672.2 121531
136774 90773.8 129970
102923 162729 164886
98773.8 153774 157986
111566 129271 166073
117774 120774 165322
131671 83647.4 105150
129610 81773.8 93773.8
115180 111453 147413
117774 114774 157110
117609 121813 165129
124278 114774 163774
119253 128800 177536
124774 119774 172970
123667 116394 164455
132774 112774 166030
138834 219404 27785.8
145226 211774 34773.8
135936 213125 31740.6
125518 208774 32773.8
129429 209563 40095.4
130774 208774 49957.8
142231 210115 51001.8
148774 208066 49773.8
121174 205673 48002.6
124774 205194 55773.8
145377 204396 58600.6
152858 203774 58773.8
123522 204854 54375.4
122774 201842 60773.8
122998 202745 58854.2
115774 199022 60773.8
135533 205959 57759.8
140774 203774 67061.8
149841 200007 64670.6
158046 196774 62773.8
114032 200403 48789.4
109574 198774 47773.8
140497 203420 65404.6
145774 200014 71773.8
161234 189458 74309
157774 193402 78773.8
120186 196207 70721
111774 193398 68773.8
132504 198946 75971
137774 197774 79937.8
[...]
CELL_DATA 1581
SCALARS radius float
LOOKUP_TABLE default
2.122e-314
100
100
1.16241
0.817711
1.00758
0.130954
0.81659
1.00681
0.111617
0.799648
0.798566
0.187085
0.812554
0.781231
0.305144
0.0568292
0.78113
0.161266
0.796152
0.257406
0.785983
0.100697
0.811019
0.0482227
0.289829
0.599556
0.637105
0.754156
0.379948
0.0629881
0.599324
0.356183
0.207913
0.0595732
0.754032
0.27497
0.740075
0.0767705
0.810529
0.167756
0.34332
0.759617
0.452553
0.203154
0.628721
0.0869599
0.180627
0.229483
0.616526
0.593642
0.182366
0.06715
0.273628
0.0865903
0.337663
0.737368
0.155605
0.693282
0.47191
0.217278
0.605869
0.0526818
0.216241
0.44054
0.49827
0.199996
0.201518
0.320336
0.177874
0.0889322
0.318035
0.648773
0.500701
0.0628043
0.448579
0.296522
0.441968
0.441111
0.164273
0.103782
0.647887
0.113152
0.438038
0.0682893
0.689565
0.683338
0.206483
0.619192
0.433895
0.236782
0.165014
0.192077
0.285841
0.0900742
0.605205
0.173733
0.458849
0.0615482
0.295636
0.592127
0.149705
0.082816
0.43124
0.0933766
0.428279
0.195917
0.640974
0.121555
0.178881
0.198586
0.584586
0.190189
0.428996
0.0761944
0.499
0.482359
0.160401
0.504465
0.512947
0.221882
0.410697
0.0947978
0.454157
0.0803231
0.618741
0.374292
0.433395
0.123849
0.430505
0.0985497
0.425156
0.205424
0.469606
0.167006
0.276681
0.416974
0.181197
0.0566163
0.37386
0.268892
0.420273
0.0882003
0.432174
0.0922428
0.582605
0.358994
0.299349
0.0951889
0.615662
0.317453
0.544867
0.20919
0.407556
0.389064
0.209111
0.145418
0.22601
0.498978
0.16062
0.309559
0.132531
0.292439
0.300906
0.221571
0.407521
0.0647779
0.396547
0.490439
0.141681
0.128433
0.412872
0.247023
0.281843
0.0858891
0.282878
0.0684257
0.245261
0.0687276
0.187149
0.266126
0.18333
0.463608
0.139927
0.0980033
0.356542
0.334603
0.351037
0.178612
0.170549
0.578093
0.33958
0.538179
0.169342
0.2916
0.134815
0.0571479
0.577907
0.0752327
0.218961
0.570964
0.164404
0.374828
0.213231
0.303195
0.12147
0.0976147
0.4872
0.309121
0.19999
0.0637159
0.196375
0.105979
0.238479
0.089579
0.403881
0.218532
0.271333
0.117318
0.342396
0.578649
0.15876
0.264923
0.155981
0.405344
0.131591
0.077131
0.404543
0.229284
0.233563
0.45294
0.14453
0.531987
0.174553
0.191012
0.119338
0.226849
0.28938
0.0712558
0.307854
0.068746
0.152536
0.160043
0.245235
0.397576
0.310997
0.356576
0.267401
0.0814919
0.223288
0.257726
0.22072
0.336674
0.426318
0.121584
0.2962
0.31214
0.305386
0.132176
0.568593
0.327771
0.14339
0.394311
0.165987
0.0731093
0.257626
0.0743878
0.396706
0.0941393
0.341036
0.41034
0.203193
0.318628
0.194128
0.402874
0.154713
0.178973
0.381616
0.520348
0.19551
0.19428
0.235981
0.301427
0.484176
0.297393
0.155738
0.34861
0.143763
0.210007
0.257331
0.541334
0.231983
0.0748128
0.226597
0.104416
0.284986
0.076866
0.48146
0.0933903
0.325224
0.0629769
0.54105
0.246748
0.23786
0.0703182
0.175279
0.330703
0.165368
0.0985621
0.315453
0.14793
0.255723
0.335987
0.251115
0.107062
0.400338
0.10419
0.291032
0.109714
0.47683
0.329199
0.188429
0.53741
0.146987
0.25875
0.257507
0.214569
0.34975
0.17204
0.230408
0.213963
0.297655
0.369361
0.195131
0.129579
0.291725
0.111717
0.365922
0.126521
0.329897
0.533358
0.151603
0.343379
0.408021
0.0891613
0.247311
0.12456
0.270484
0.282257
0.237616
0.302858
0.199135
0.457733
0.382176
0.0711213
0.342359
0.17159
0.270418
0.116564
0.34821
0.14762
0.290685
0.205849
0.322359
0.104301
0.334867
0.240512
0.434433
0.136943
0.313901
0.103103
0.401465
0.0701059
0.381389
0.172985
0.244479
0.102742
0.277645
0.311847
0.191022
0.168111
0.28124
0.22023
0.210601
0.262386
0.334453
0.0908585
0.23611
0.102634
0.257043
0.426235
0.165764
0.126201
0.198789
0.322862
0.3345
0.202218
0.307734
0.137042
0.243341
0.198848
0.30004
0.0888436
0.320604
0.141924
0.258613
0.113682
0.398403
0.152704
0.197088
0.124682
0.319408
0.14329
0.24303
0.272141
0.233915
0.191913
0.215806
0.223847
0.373299
0.218547
0.280831
0.0909599
0.195887
0.112586
0.369854
0.145018
0.267751
0.288569
0.277929
1.16217
0.0995602
0.0448299
0.129179
0.0965233
0.81614
0.0764044
0.0981157
0.0574819
0.185259
0.0916545
0.799246
0.162275
0.112626
0.0855717
0.153921
0.79645
0.159232
0.798351
0.119658
0.0824567
0.81206
0.0765744
0.143679
0.252942
0.0955426
0.290273
0.158139
0.0910574
0.780317
0.0664224
0.157419
0.811536
0.101206
0.120304
0.282748
0.779765
0.100247
0.123772
0.126094
0.785022
0.100621
0.0679369
0.281435
0.0959637
0.183113
0.0569707
0.201649
0.107529
0.182676
0.0997632
0.75345
0.147208
0.143417
0.0729757
0.27979
0.0977301
0.172485
0.809774
0.114115
0.0691647
0.179309
0.15065
0.2644
0.0490056
0.16635
0.33955
0.109645
0.110536
0.196929
0.0568496
0.170401
0.626947
0.128013
0.212971
0.13436
0.091859
0.160993
0.237089
0.141762
0.126807
0.136874
0.105185
0.736654
0.689788
0.171135
0.105893
0.156385
0.16578
0.206228
0.162608
0.164744
0.735946
0.104813
0.482608
0.179898
0.071836
0.210211
0.0926482
0.170653
0.226269
0.119135
0.0875108
0.194247
0.0749623
0.150419
0.0944617
0.470645
0.0565989
0.10822
0.0539677
0.17198
0.499591
0.094085
0.178019
0.181133
0.107741
0.198176
0.260946
0.139568
0.170311
0.163228
0.137323
0.132958
0.0996675
0.134134
0.432256
0.177238
0.096006
0.161365
0.130624
0.150354
0.5953
0.220403
0.124633
0.135668
0.149023
0.155732
0.4908
0.176314
0.0851517
0.153039
0.052373
0.118224
0.0792756
0.171785
0.488201
0.147619
0.0715771
0.128672
0.251046
0.196026
0.0737085
0.114451
0.426914
0.104597
0.10966
0.243869
0.175188
0.150764
0.106698
0.164198
0.0812034
0.169167
0.0825106
0.138471
0.0755691
0.149422
0.071532
0.211117
0.616419
0.138502
0.0610857
0.164236
0.127567
0.157044
0.197927
0.188984
0.106545
0.128979
0.111433
0.262355
0.0910708
0.149949
0.246653
0.18346
0.0889603
0.205714
0.210902
0.114391
0.0986528
0.151393
0.428081
0.110252
0.115112
0.152464
0.0767531
0.137909
0.123999
0.162046
0.11272
0.175756
0.494349
0.150744
0.543711
0.100909
0.171892
0.159731
0.128087
0.234556
0.397123
0.171759
0.157055
0.174021
0.201501
0.167779
0.0681406
0.121692
0.151604
0.180661
0.409916
0.114503
0.0848571
0.214181
0.0978287
0.138634
0.488503
0.111641
0.135617
0.261138
0.15389
0.165548
0.112621
0.153974
0.492659
0.167229
0.118926
0.153401
0.0723062
0.164829
0.457793
0.154704
0.338207
0.187948
0.0842867
0.130944
0.132792
0.209561
0.1496
0.247958
0.0684802
0.207095
0.0687963
0.243417
0.334827
0.117478
0.220075
0.192641
0.575472
0.103044
0.0863311
0.181175
0.0622853
0.14627
0.400951
0.120468
0.117134
0.185584
0.144959
0.256774
0.0762934
0.137065
0.157596
0.158055
0.157625
0.235215
0.0687098
0.125672
0.0709426
0.21825
0.116068
0.234282
0.110356
0.179722
0.130616
0.202221
0.166838
0.207382
0.112239
0.137287
0.158813
0.224003
0.13241
0.128506
0.52939
0.129945
0.131695
0.133749
0.154772
0.19509
0.0769735
0.191449
0.168829
0.185931
0.555178
0.225735
0.194709
0.196965
0.0807715
0.232784
0.0707104
0.166397
0.0819685
0.180461
0.0835401
0.221855
0.138358
0.162873
0.27357
0.155481
0.0752086
0.211044
0.0567236
0.140368
0.377424
0.121898
0.0949818
0.142938
0.0998866
0.160862
0.0939457
0.195223
0.351751
0.258011
0.0687882
0.191804
0.343949
0.141484
0.117261
0.176044
0.0804471
0.147094
0.295416
0.117102
0.142064
0.185613
0.13721
0.160144
0.185991
0.177959
0.126258
0.247093
0.271261
0.147141
0.103461
0.240893
0.182753
0.170485
0.201961
0.20675
0.122773
0.152327
0.0806082
0.165927
0.0954628
0.186106
0.141447
0.206495
0.300009
0.163721
0.180449
0.221363
0.1736
0.201864
0.109917
0.168401
0.386688
0.185097
0.0959431
0.194364
0.128515
0.235155
0.145352
0.148438
0.0994263
0.207202
0.122401
0.177538
0.103915
0.278102
0.16004
0.259176
0.114383
0.23197
0.106731
0.204717
0.334111
0.141462
0.299985
0.149338
0.177141
0.198806
0.203431
0.206118
0.0941626
0.1915
0.149092
0.207372
0.0890796
0.164723
0.352511
0.173163
0.133367
0.182182
0.200477
0.28386
0.271542
0.165587
0.214474
0.148837
0.168797
0.21402
0.183823
0.19602
0.239532
0.197119
0.194805
0.249223
0.104223
0.180064
0.0888117
0.205199
0.282856
0.163617
0.414242
0.185219
0.0820958
0.15876
0.326711
0.138859
0.135474
0.246199
0.325619
0.142645
0.199945
0.185818
0.169842
0.28942
0.179773
0.264159
0.098806
0.259469
0.11235
0.282777
0.176616
0.257643
0.152888
0.186404
0.217371
0.223723
0.106167
0.172775
0.111555
0.208395
0.103759
0.210135
0.162954
0.203858
0.21539
0.229928
0.356997
0.172072
0.213806
0.211207
1.00727
0.0976819
0.0382479
0.0956868
0.0880243
0.113796
0.0598067
0.106698
0.815846
0.0837599
0.178651
0.086907
0.812344
0.0746158
0.150592
0.0853732
0.0936492
0.0962608
0.105149
0.135432
0.052852
0.0955889
0.0842489
0.795837
0.113791
0.114285
0.79508
0.112873
0.78073
0.0901295
0.061795
0.154929
0.785572
0.0912685
0.0657509
0.119828
0.810759
0.080085
0.0773786
0.0991503
0.191508
0.105071
0.0739888
0.149087
0.092152
0.636462
0.378385
0.087685
0.0748976
0.136257
0.133237
0.170587
0.0883217
0.753045
0.73967
0.0872758
0.194335
0.0951077
0.0894652
0.139299
0.18711
0.102799
0.752517
0.096424
0.0746268
0.102294
0.0664518
0.136718
0.0727113
0.129661
0.138145
0.132638
0.615044
0.119017
0.635713
0.0968627
0.0874306
0.112648
0.0610386
0.161903
0.0824648
0.104007
0.252905
0.132144
0.151211
0.134549
0.0910117
0.118682
0.0823113
0.153475
0.143421
0.144109
0.104735
0.167188
0.448989
0.129522
0.0576504
0.114454
0.0702101
0.166527
0.101879
0.1527
0.12922
0.136001
0.0806548
0.118123
0.0638369
0.139806
0.0723036
0.145911
0.0525094
0.0990931
0.0583212
0.129107
0.467006
0.133882
0.312238
0.119977
0.0595886
0.132076
0.0988529
0.112761
0.0962558
0.431509
0.105383
0.133417
0.0885323
0.12651
0.4331
0.141126
0.152479
0.161827
0.647018
0.103002
0.208268
0.102524
0.140469
0.119851
0.429754
0.0992108
0.213819
0.0976477
0.125938
0.151591
0.112898
0.140928
0.45553
0.127681
0.0623265
0.152331
0.0673462
0.11916
0.089513
0.140379
0.124538
0.114352
0.0847403
0.113781
0.115551
0.1611
0.103784
0.130418
0.119309
0.146478
0.511521
0.103931
0.0626925
0.107735
0.0870796
0.182608
0.0981641
0.143048
0.127873
0.175891
0.12471
0.130872
0.408239
0.107329
0.0683864
0.132705
0.583375
0.107392
0.244519
0.15093
0.190022
0.12263
0.467819
0.105611
0.110469
0.127597
0.140496
0.138486
0.418106
0.104522
0.0675455
0.156536
0.0896504
0.13955
0.136698
0.139514
0.0469596
0.116863
0.0817968
0.131297
0.614775
0.100242
0.146859
0.139745
0.285493
0.152621
0.103503
0.139708
0.093361
0.154991
0.0789622
0.130986
0.405476
0.100464
0.153272
0.113608
0.107225
0.146063
0.0461846
0.160786
0.0959998
0.147218
0.0710231
0.127895
0.272802
0.132645
0.0700939
0.125644
0.104926
0.144248
0.0788235
0.145264
0.346927
0.114511
0.0612807
0.116032
0.149942
0.184925
0.119897
0.14018
0.133401
0.158075
0.129268
0.193452
0.110165
0.133243
0.154077
0.173516
0.0779863
0.149192
0.576571
0.110133
0.138771
0.148498
0.0914277
0.147142
0.13593
0.154155
0.174262
0.108095
0.100615
0.15473
0.34341
0.131708
0.0508773
0.131249
0.302877
0.111667
0.0917157
0.154157
0.164937
0.16426
0.164297
0.130141
0.0745607
0.148106
0.118832
0.337557
0.143791
0.184749
0.127535
0.220939
0.132494
0.159607
0.0730675
0.170176
0.153015
0.209224
0.0574742
0.124554
0.155967
0.209686
0.329907
0.13673
0.172793
0.122936
0.165163
0.200902
0.567349
0.106368
0.130605
0.191218
0.118899
0.179093
0.259574
0.117694
0.392998
0.120147
0.106242
0.155073
0.0733245
0.157761
0.289584
0.119409
0.0780844
0.135634
0.186881
0.163775
0.126528
0.177747
0.141523
0.120248
0.146038
0.182156
0.222794
0.112547
0.15652
0.163903
0.0962174
0.198878
0.154333
0.155559
0.121525
0.167886
0.482112
0.11306
0.0909529
0.155635
0.109553
0.191969
0.187487
0.0994129
0.229386
0.170661
0.121053
0.174158
0.116116
0.184697
0.478758
0.123155
0.118864
0.175388
0.150186
0.22595
0.122804
0.14586
0.116899
0.209442
0.167405
0.161398
0.0708421
0.159232
0.163046
0.235939
0.0722459
0.140922
0.138138
0.201745
0.153991
0.173092
0.182805
0.190329
0.242784
0.229332
0.18047
0.187621
0.0917436
0.139456
0.142116
0.225327
0.0831119
0.152305
0.124632
0.21634
0.147729
0.167181
0.403719
0.128586
0.0808938
0.185328
0.279017
0.143073
0.224418
0.20386
1.10699
0.0985742
1.10616
1.09727
0.268461
0.115061
1.09685
0.161898
0.227259
1.10409
0.196199
0.683054
0.285863
0.989902
0.703083
0.674481
0.227984
0.105761
0.673613
0.126254
0.989217
0.127557
0.213811
0.467524
0.953104
0.109382
0.46552
0.165827
0.670246
0.0877767
0.952856
0.0906002
0.669694
0.164163
0.66639
0.103777
0.463794
0.11987
0.952223
0.100546
0.665626
0.21947
0.446798
0.124368
0.664175
0.118983
0.207133
0.111496
0.951714
0.327456
0.378166
0.11116
0.323129
0.445472
0.918
0.147616
0.661736
0.0836641
0.444486
0.309261
0.290451
0.179032
0.915725
0.0813307
0.915511
0.142371
0.298857
0.155149
0.310737
0.413193
0.258494
0.147872
0.659265
0.191346
0.399035
0.117454
0.914866
0.90206
0.268328
0.909906
0.231385
0.188255
0.654108
0.84312
0.512594
0.11921
0.395456
0.129118
0.281683
0.109172
0.262164
0.104534
0.653217
0.111091
0.222513
0.183774
0.273623
0.157705
0.29656
0.0850173
0.255391
0.094736
0.842721
0.13511
0.390128
0.104539
0.51114
0.626586
0.319839
0.206272
0.619045
0.163776
0.238846
0.168723
0.228015
0.0905336
0.317403
0.204014
0.370566
0.113527
0.842033
0.487033
0.262161
0.116122
0.484822
0.0953373
0.61829
0.169089
0.614045
0.19809
0.838363
0.193407
0.304716
0.113581
0.837668
0.190701
0.474781
0.164483
0.468107
0.2402
0.262646
0.134957
0.250186
0.131149
0.836595
0.197173
0.607192
0.809033
0.382552
0.421048
0.303404
0.141098
0.415699
0.184973
0.601416
0.225659
0.590634
0.793967
0.307357
0.13786
0.792579
0.186744
0.789108
0.122034
0.253032
0.134689
0.787798
0.328743
0.248567
0.179481
0.784681
0.175216
0.282521
0.18926
0.402188
0.548754
0.344244
0.10283
0.547548
0.123938
0.378166
0.129112
0.299567
0.270817
0.356199
0.172279
0.781903
0.194753
0.777854
0.237843
0.301253
0.158244
0.368695
0.169835
0.542047
0.206349
0.345751
0.223954
0.311068
0.16745
0.281
0.294629
0.763501
0.170487
0.274219
0.0998418
0.762932
0.199134
0.633982
0.204259
0.532201
0.640465
0.56604
0.178102
0.560101
0.223381
0.6246
0.22666
0.518128
0.214995
0.615991
0.149555
0.613038
0.151561
0.556377
0.158922
0.548821
0.169517
0.512007
0.208706
0.54641
0.355288
0.493871
0.228478
0.532756
0.553227
0.393798
0.181868
0.485509
0.19242
0.502783
0.321197
0.43322
0.249253
0.51391
0.240338
0.361359
0.249659
0.493468
0.284092
0.470524
0.3519
0.424671
1.10642
0.128162
1.10261
0.140143
1.10336
0.138977
1.09629
0.126939
0.139266
0.701257
0.176403
0.184182
0.133606
0.275784
0.135611
0.264389
0.153922
0.245711
0.251883
0.149892
0.169334
0.215293
0.151858
0.159404
0.699352
0.141007
