# vtk DataFile Version 3.0
Tree
ASCII
DATASET POLYDATA
POINTS 1582 float
162774 225274 273.8
162774 225274 10273.8
141774 225774 23773.8
135774 213218 31773.8
137934 217874 31553.8
132774 207914 54773.8
134735 211699 45950.2
152774 203774 58881.8
134146 210563 48597.4
113590 200774 51773.8
133474 207985 54299.4
132774 198774 73885.8
148183 204653 58060.2
154774 194774 77953.8
133096 203011 64876.2
111774 192006 72773.8
152797 197738 71985.8
167774 185258 72773.8
115923 194385 69381.4
100294 187774 63773.8
159686 191997 72348.2
167390 185774 90773.8
133307 199765 73236.6
135774 195262 91773.8
111878 191907 72435
99773.8 183994 80773.8
165347 187279 72646.2
171950 168774 61773.8
166763 185957 86359
177774 175082 94773.8
103405 186368 78272.2
88321.8 175774 69773.8
135034 196613 86212.6
121774 193998 100774
167856 180247 68514.6
178018 166774 78773.8
171133 169632 63313.8
174014 152774 59773.8
105947 188029 76521
105774 188774 96225.8
135757 196162 91152.6
138774 195998 110774
97673.4 182342 75042.6
86289.8 173774 85773.8
137627 196060 103318
151078 195774 107774
174496 177725 94348.6
181886 166774 112774
90398.2 175848 71617.8
79773.8 159886 69773.8
124057 195379 100314
114774 195942 115774
173150 157831 60835.8
181974 141774 75773.8
178381 171002 101977
183774 157082 102774
105840 188491 88737.8
93773.8 183958 96773.8
143815 195929 105367
154774 193886 94773.8
178621 147875 70097.4
180002 129774 64773.8
180431 144581 73162.6
183994 149774 88773.8
104822 188932 95157
98773.8 190774 111590
94960.2 183199 95469
80773.8 174774 103594
85029.8 177301 101156
76773.8 163294 95773.8
82961 164675 70327
77549.8 157774 82773.8
180675 166632 108971
183998 152774 118774
138981 196025 110368
143774 195998 130774
149943 195000 107299
165282 189774 111774
140419 196017 116489
125774 198002 129774
125929 197525 127425
113774 198002 132774
80729.8 161323 69939.8
79565.8 144774 71773.8
179349 133401 64391
178002 120774 51773.8
179806 130862 64659
183998 125774 77773.8
183101 154695 115567
183998 139774 114774
183729 153350 117812
183998 155774 132774
80532.6 149586 69731.8
83561.8 137774 61773.8
79001.8 158097 80533
77485.8 146774 90773.8
183917 152947 118485
183998 139774 130774
163148 188926 110902
175190 180774 113774
141694 196009 121917
159078 193774 126774
79911 168617 97819
78161.8 152774 109774
182070 146969 80343.8
183998 134774 92773.8
88009 179071 99450.2
84773.8 181774 117150
117328 197803 132867
108774 197774 146810
178406 124562 55559
185974 125774 36773.8
143229 195971 130474
145082 195774 150774
78177 149131 89689
79497.8 141774 102774
112981 197511 137463
102774 195774 138806
125820 197859 129069
126774 199874 143774
157689 192512 126205
167774 189226 128774
77693 147481 90448.2
79665.8 134774 82773.8
183973 143726 127087
181998 126774 123774
143558 196135 146273
137774 197978 157774
158328 193093 126467
163078 191774 138774
183991 140959 129668
179774 135774 149894
99309.4 190310 110303
93773.8 191222 125774
183547 154525 131604
182774 154774 149970
182907 134572 125298
177994 123774 137774
82653 141317 64161.4
86361.8 122774 69773.8
181176 167121 112235
181230 169774 122774
86067.4 180484 114436
87773.8 177774 131898
179443 134913 144818
173774 126774 154882
110303 196290 144466
106774 187982 158774
79073.8 138586 85076.2
81657.8 128774 90773.8
181739 127324 123823
179774 117598 121774
86649.8 180060 109940
83477.8 165774 124774
84952.6 129820 67641
89545.8 119774 57773.8
126421 199182 143373
126774 200002 155774
86330.6 126806 64681
87601.8 130774 51773.8
108397 191803 152192
115774 194442 163774
79818.2 142699 102468
81773.8 138774 112898
179263 126153 132761
174774 113774 133158
95825 189685 123676
94773.8 186774 135962
137665 197821 157173
130774 199522 168774
86565 123136 69337.8
90529.8 111774 70773.8
137741 197931 157594
142774 194070 167774
81369.4 140848 110786
83773.8 143774 123886
175198 128503 150843
169774 118774 151190
87313 176825 128181
87773.8 165774 139026
179720 118873 121474
176774 108258 117774
87451.4 173510 131434
92773.8 176774 143890
173774 127934 154116
167774 127774 166434
81749.8 130361 88779.8
88773.8 115582 90773.8
107261 189128 156799
101774 173774 162022
174429 128195 152610
175842 137774 161774
89269.4 120529 57958.6
93773.8 111602 45773.8
83544.6 144244 121761
86773.8 152774 133970
181901 155814 148574
178774 158774 165974
103420 178380 160455
96357.8 171774 153774
85051.4 123566 91162.2
87773.8 118774 100814
81652.6 139396 112264
87773.8 127622 117774
113561 193650 160299
113774 182774 174866
183863 155399 132423
181998 167774 136774
89736.2 114883 69291.4
94773.8 105574 63773.8
165364 189261 128995
175774 181258 136774
174250 115215 133583
167774 104774 135130
88230.6 167863 138061
91657.8 165774 146774
144625 195882 149423
155774 191998 152774
90592.6 112768 70879
94321.8 105774 77773.8
141415 195089 166845
142774 193906 180774
169574 127822 162739
159774 119774 166446
102350 174126 161902
101774 164774 165086
176794 109656 118493
171238 97773.8 115774
179198 156855 162232
175774 150774 172806
112932 185461 169335
108294 174774 171774
164282 123476 164741
160774 114774 157974
87918.6 119051 97850.2
95613.8 108774 103774
144945 195806 150369
146774 194006 158774
168024 128222 165841
161974 130774 177774
178488 158775 165438
175186 165774 175774
109685 177980 171042
112774 172774 178030
173349 102289 116807
174774 97773.8 105158
176272 151425 169241
170774 140226 173774
83705 143915 123248
88353.8 133774 126774
182395 155427 143483
181834 167774 149774
91784.6 113595 99492.6
96293.8 105774 94773.8
169833 185971 133787
171258 185774 143774
162066 116283 158373
163238 108774 147774
86541 129686 115586
90773.8 119658 112774
147254 194075 156392
154774 190002 162774
175508 151438 172116
171774 152774 182906
94195.4 106575 64983.4
100358 94773.8 61773.8
171183 98115.4 115633
166774 91505.8 112774
88029.8 135672 126802
95005.8 127774 133774
168097 93488.6 113631
169266 89773.8 103774
95843.4 106941 94787.8
101774 99029.8 85773.8
174383 104499 117313
166426 97773.8 125774
175325 164164 174663
169814 167774 187774
102723 167347 165048
107114 159774 172774
161964 130034 177395
157774 130774 185110
94319 111093 103271
100314 107774 115774
112067 172919 177087
113678 163774 184774
161971 130552 177660
165774 140774 184966
94666.6 127989 133273
99773.8 121774 137962
180664 166623 148601
177014 177774 152774
88826.6 124271 114067
93773.8 118774 120882
174432 98017.4 105377
174774 94773.8 95953.8
96597 109831 108022
104774 101502 108774
155006 192058 152619
165774 187774 156050
168915 90888.2 106731
161290 82773.8 101774
105995 160559 170828
107590 150774 173774
167643 98609.8 123145
159774 90773.8 123318
171597 152799 182473
165810 154774 196774
99532.2 96980.2 63200.6
106346 87773.8 65773.8
151260 191301 161596
152774 186774 173962
169727 168299 185258
163206 173774 193774
94904.2 127839 133624
97457.8 132774 142774
166017 87804.6 104847
167774 84773.8 93149.8
102667 92745.4 64384.2
105550 86773.8 56773.8
101836 99476.2 87258.2
108774 91581.8 80773.8
113059 164843 182559
112362 153774 183774
100355 107769 114633
107774 103774 122574
177406 175079 152767
172774 180030 160774
100110 95435.8 62201.8
99553.8 95773.8 52773.8
165684 171693 190538
158774 179882 187774
151241 188503 171912
149030 187774 180774
97015.8 125130 135430
100290 115774 129774
174961 95481.4 97072.6
176774 93573.8 85773.8
106392 88416.2 65876.2
113774 82773.8 69185.8
161374 83680.2 102044
152774 79545.8 97773.8
97289 132315 142698
99773.8 136774 152962
166887 88729.8 105413
157774 83773.8 111894
112887 155223 183462
114774 142774 183890
163289 173273 192548
154774 177774 196806
112939 158109 183191
117030 151774 191774
106611 104820 121858
113774 103542 132774
110378 85369.4 67663.4
115998 75773.8 58773.8
172657 179494 160172
167062 183774 167774
98764.2 136613 149799
98773.8 146774 156026
175228 165291 175441
172774 174774 171958
166459 84853.4 94855.4
161774 79497.8 82773.8
114093 145155 182778
113550 135774 176774
164679 82818.2 90264.6
171774 83089.8 79773.8
98767.8 140474 152165
93561.8 149774 147774
109333 104334 126006
118222 96773.8 125774
112514 81723 64285.4
123774 75141.8 67773.8
97206.2 143264 150847
93445.8 142774 142774
171628 83216.2 80331.4
177334 83773.8 72773.8
113054 139948 178096
108342 136774 167774
114570 143488 183556
122234 139774 194774
171730 83127.8 79941
166774 75505.8 72773.8
114713 142988 183790
120774 131598 184774
112779 104303 131945
117774 107002 143774
163611 174150 189709
165182 179774 179774
113638 136449 176642
115702 127774 171774
116599 98007.8 124997
123774 91005.8 119774
115527 104645 136235
122774 101538 139774
93621 142572 143397
89773.8 141494 135774
94307 147635 147913
89773.8 150774 141082
106856 155275 172419
104314 149774 167774
117027 107173 142882
116774 112774 151946
122799 91914.6 119186
127774 87001.8 113774
117550 107053 143506
126774 104774 149882
99697.8 122377 137687
107702 115774 143774
125123 104937 147865
132774 101542 147774
127276 88269.4 115808
136654 83773.8 114774
105301 117755 141948
109574 120774 152774
126279 104823 149277
132658 107774 158774
124500 90529.4 117903
135774 87773.8 123974
131590 86201.4 115332
133774 82521.8 106774
93785.4 149132 147815
95761.8 154774 154774
129723 106416 154405
125774 112342 160774
109102 120928 151888
112774 124774 161982
99471 136725 152013
105542 130774 157774
131995 84248.6 109614
127774 83553.8 100774
133287 83157.8 106987
136774 80773.8 97953.8
130588 89041.4 121181
132774 93737.8 134774
129193 83464.6 101901
129774 81577.8 91773.8
125815 111773 159626
120278 118774 165774
121939 116673 163929
124774 119774 172970
125786 112171 160429
131774 113506 166774
140095 219815 29281.8
143774 211986 34773.8
136422 214615 31707.8
127774 209978 36773.8
143086 213930 34551
145954 210774 43773.8
128449 210527 36957.8
122774 207966 41773.8
145577 208233 51478.6
149774 207774 51929.8
132984 207935 54631.4
124774 203774 58965.8
122533 205777 47238.6
116774 204062 43773.8
125721 204265 57296.6
118774 200774 57957.8
[...]
CELL_DATA 1581
SCALARS radius float
LOOKUP_TABLE default
2.122e-314
100
100
1.15765
1.15581
0.175081
1.00364
0.810842
0.161854
1.00223
0.14682
1.00071
0.809945
0.108572
0.845439
0.730828
0.807007
0.170084
0.839909
0.202893
0.466892
0.750015
0.146704
0.728442
0.838215
0.152948
0.118537
0.464331
0.0849983
0.748647
0.0863094
0.786
0.281242
0.712179
0.41746
0.293782
0.414193
0.119228
0.786347
0.468305
0.058883
0.710053
0.782479
0.186585
0.302813
0.689579
0.0856233
0.746992
0.11114
0.781731
0.149836
0.247845
0.0993034
0.396181
0.742742
0.168353
0.269869
0.436294
0.266513
0.20674
0.29649
0.323206
0.26853
0.188522
0.0679289
0.268427
0.434065
0.10819
0.297922
0.180722
0.456945
0.724595
0.157117
0.740391
0.688277
0.0943958
0.242031
0.168124
0.499701
0.586047
0.567503
0.22695
0.454459
0.115697
0.17175
0.300445
0.0861389
0.164201
0.734064
0.188082
0.629389
0.526839
0.0960653
0.453024
0.0787862
0.723341
0.0487765
0.629292
0.0930555
0.237356
0.422557
0.366742
0.246487
0.149494
0.232447
0.189488
0.318618
0.361089
0.0883805
0.566787
0.19233
0.210741
0.108418
0.420165
0.605341
0.539065
0.553886
0.229912
0.0588837
0.225621
0.240812
0.309862
0.0598236
0.605147
0.441714
0.54628
0.334564
0.325913
0.069052
0.238905
0.0748504
0.440996
0.0784659
0.240623
0.134866
0.509922
0.491925
0.352982
0.436665
0.17986
0.0651906
0.153284
0.138205
0.339408
0.107329
0.434436
0.551513
0.12956
0.601772
0.154482
0.0609742
0.489747
0.34688
0.174809
0.272993
0.39773
0.0779951
0.15148
0.238453
0.189328
0.345579
0.501967
0.534719
0.121788
0.314656
0.222887
0.116044
0.20654
0.273702
0.226571
0.0627061
0.391231
0.0502547
0.273137
0.255943
0.514412
0.425096
0.172976
0.111359
0.306771
0.125744
0.484304
0.242289
0.244669
0.0828967
0.38374
0.598296
0.155431
0.339326
0.130059
0.385025
0.27026
0.145789
0.218696
0.494843
0.217885
0.465419
0.161823
0.316138
0.180473
0.590703
0.18969
0.246501
0.121375
0.101375
0.499253
0.0586412
0.131064
0.185632
0.376773
0.289962
0.175137
0.183532
0.292291
0.119873
0.219401
0.290846
0.234199
0.0791612
0.180704
0.190233
0.204761
0.273814
0.323917
0.136674
0.307383
0.0833917
0.478826
0.396606
0.337467
0.117069
0.488971
0.138679
0.261402
0.585653
0.173697
0.0571748
0.290108
0.079204
0.322331
0.0670203
0.395967
0.105603
0.48479
0.418472
0.28362
0.313385
0.181657
0.0631886
0.494499
0.471851
0.291954
0.29183
0.560429
0.255075
0.198178
0.127194
0.202586
0.229159
0.14332
0.280158
0.134385
0.0826247
0.311458
0.357909
0.17966
0.0621465
0.418014
0.482129
0.195371
0.103801
0.40662
0.268591
0.176274
0.458039
0.239198
0.191803
0.380358
0.206351
0.262059
0.171691
0.26797
0.556183
0.15835
0.47217
0.15909
0.0712354
0.266282
0.40379
0.35891
0.091096
0.283882
0.153791
0.203252
0.0750678
0.251161
0.133815
0.552028
0.0775801
0.22169
0.39744
0.164503
0.128383
0.23496
0.116699
0.229556
0.0792426
0.258333
0.344549
0.170366
0.249382
0.186431
0.114308
0.3526
0.0510515
0.403517
0.258024
0.333655
0.318147
0.205676
0.0997785
0.253407
0.106083
0.467391
0.0766949
0.551534
0.158784
0.266251
0.0881473
0.162106
0.243521
0.308624
0.12539
0.238333
0.321986
0.234236
0.112495
0.243401
0.0863296
0.316014
0.181483
0.223744
0.0689109
0.396844
0.378728
0.203733
0.0999767
0.417744
0.112761
0.23518
0.424991
0.28679
0.538466
0.138082
0.149552
0.30443
0.0992793
0.230651
0.366852
0.23589
0.0738066
0.188089
0.315105
0.18026
0.297634
0.359687
0.178433
0.294746
0.149741
0.35834
0.442779
0.410784
0.191068
0.256588
0.298121
0.269243
0.224192
0.242937
0.250076
0.277481
0.192815
0.267763
0.0842298
0.239514
0.0707582
0.266105
0.0895461
0.441555
0.169581
0.290516
0.211853
0.183023
0.403743
0.151885
0.416827
0.239099
0.101261
0.243799
0.199028
0.265011
0.174865
0.196818
0.156929
0.409276
0.0968768
0.401875
0.067298
0.408669
0.0745948
0.320646
0.158321
0.40059
0.116485
0.362458
0.207175
0.288748
0.0888966
0.399125
0.366425
0.250428
0.339101
0.205081
0.0993728
0.190402
0.152642
0.384592
0.244225
0.185095
0.164018
0.205777
0.288538
0.246462
0.189864
0.258021
0.195428
0.201994
0.147324
0.227492
0.353798
0.202543
0.227383
0.319221
0.0897664
0.196486
1.15715
0.126198
0.0627585
0.172351
0.07765
0.115521
0.0686422
0.146434
0.810594
0.0787699
0.0392215
0.145881
0.103647
0.146226
0.0790016
0.137709
0.998208
0.195829
0.843837
0.141526
0.809518
0.0943278
0.102821
0.185884
0.0647541
0.136855
0.0715743
0.129991
0.0604966
0.171881
0.806036
0.123745
0.142477
0.166612
0.0450865
0.145271
0.135143
0.134848
0.726509
0.14532
0.0985034
0.124643
0.0329496
0.152436
0.0785197
0.125658
0.0768685
0.160969
0.0620833
0.112564
0.105015
0.144429
0.0705635
0.147219
0.272325
0.127023
0.099374
0.28664
0.747366
0.129055
0.0619587
0.10431
0.0671423
0.1452
0.39825
0.19911
0.24794
0.202543
0.0578663
0.114499
0.20773
0.184477
0.0993745
0.781196
0.183496
0.119702
0.227677
0.150697
0.112711
0.171723
0.102087
0.15874
0.0847865
0.164944
0.264899
0.117146
0.10484
0.141741
0.140862
0.150126
0.05557
0.206396
0.0559294
0.147492
0.133514
0.185782
0.78071
0.0961462
0.738157
0.154163
0.0699473
0.182416
0.10953
0.195938
0.579352
0.132097
0.263601
0.201047
0.129695
0.165323
0.153565
0.201495
0.05454
0.111507
0.0743944
0.147509
0.100737
0.135261
0.147754
0.162573
0.125662
0.183673
0.151356
0.208716
0.0590388
0.165661
0.0721017
0.148716
0.0632291
0.143789
0.243373
0.170148
0.100241
0.749418
0.581632
0.165269
0.0807402
0.158604
0.0428886
0.106133
0.0770129
0.20516
0.254448
0.219989
0.0892312
0.16154
0.723652
0.114009
0.446608
0.157332
0.119784
0.158501
0.132432
0.222732
0.136008
0.211637
0.513048
0.223642
0.0806222
0.158609
0.145632
0.185573
0.228912
0.143909
0.122155
0.159788
0.0971549
0.145257
0.359474
0.142188
0.172535
0.191448
0.105061
0.537732
0.436609
0.136334
0.416146
0.105751
0.0768763
0.129772
0.0723609
0.221088
0.204861
0.1424
0.115324
0.129124
0.490062
0.110458
0.076459
0.167377
0.0818295
0.13002
0.506501
0.114488
0.0785399
0.127024
0.140033
0.162248
0.508541
0.166402
0.0785963
0.217726
0.0934931
0.157027
0.0637382
0.158457
0.0723601
0.121551
0.0686774
0.122293
0.069231
0.171454
0.134401
0.16335
0.220343
0.143219
0.120253
0.230164
0.148773
0.191552
0.334639
0.116884
0.0687093
0.220689
0.0503167
0.118855
0.121396
0.148142
0.0885449
0.154171
0.189201
0.157743
0.597152
0.107004
0.486454
0.121547
0.187623
0.160617
0.0587816
0.142531
0.139978
0.207143
0.0745873
0.175479
0.118519
0.205506
0.487113
0.12353
0.0510877
0.11828
0.0596006
0.121112
0.059302
0.173192
0.491197
0.180975
0.126939
0.249287
0.129486
0.187953
0.0687631
0.180256
0.0647823
0.151585
0.096471
0.199919
0.121113
0.171554
0.0562438
0.133422
0.124959
0.148721
0.122878
0.183065
0.0616088
0.168863
0.224746
0.173735
0.109366
0.174315
0.372403
0.122525
0.131256
0.187472
0.142593
0.28051
0.0592438
0.177486
0.153819
0.171449
0.0992205
0.27631
0.0653769
0.1929
0.286975
0.107765
0.148088
0.311555
0.117024
0.207689
0.115028
0.163053
0.0545743
0.121388
0.0883957
0.200796
0.128846
0.266636
0.0723606
0.164312
0.478115
0.166806
0.218083
0.195655
0.554636
0.112684
0.15808
0.166878
0.28966
0.153311
0.247098
0.142761
0.115338
0.181262
0.14265
0.290969
0.0811659
0.22116
0.174069
0.238735
0.0946172
0.184992
0.260795
0.190347
0.161466
0.187651
0.363136
0.172307
0.408863
0.167423
0.258462
0.128271
0.117584
0.145295
0.0608991
0.173817
0.143567
0.152126
0.110975
0.1572
0.469206
0.12537
0.124065
0.170849
0.166157
0.18477
0.149502
0.234717
0.122282
0.155391
0.165346
0.233431
0.419644
0.141962
0.541476
0.208105
0.0923109
0.147617
0.0779097
0.204399
0.150876
0.249449
0.0863052
0.213488
0.110661
0.241968
0.103875
0.195034
0.0753397
0.220859
0.142713
0.179608
0.160834
0.162563
0.397536
0.142257
0.167151
0.202151
0.141595
0.252171
0.0694834
0.131949
0.166977
0.207099
0.333234
0.212018
0.181686
0.191387
0.165666
0.21453
0.148636
0.14993
0.107607
0.163179
0.218089
0.135334
0.185658
0.180402
0.140248
0.275144
0.213979
0.19216
0.107394
0.212048
0.0692335
0.203131
0.0839897
0.176927
0.299196
0.131218
0.185397
0.231899
0.1899
0.243943
0.118553
0.267602
0.196381
0.235768
0.102879
0.193923
0.120844
0.224671
0.15542
0.248843
0.12356
0.219562
0.112777
0.235629
0.0685914
0.147071
0.159376
0.1692
0.140264
0.233001
0.120369
0.198205
0.157393
0.213778
0.0806639
0.162854
0.0675037
0.21151
0.182818
0.203124
0.146656
0.184769
0.163525
0.242379
0.392446
0.146419
0.275491
0.14684
0.374669
0.162496
0.130316
0.185783
0.0815498
0.184711
0.141381
0.17561
0.199618
0.187699
0.134865
0.178033
0.0849657
0.178924
0.154933
0.237866
0.128765
0.21269
0.230135
0.272976
0.114263
0.266132
0.151298
0.118316
0.071463
0.108896
0.116532
0.115916
1.00177
0.11178
0.0588962
0.106041
0.108924
0.109673
0.0496361
0.0988108
0.0640773
0.100555
0.105888
0.124705
0.845162
0.0840519
0.174344
0.103959
0.1074
0.122247
0.73042
0.086771
0.0966131
0.0997697
0.0503503
0.132466
0.195894
0.0941628
0.0931314
0.162236
0.0533123
0.118769
0.461212
0.126066
0.108515
0.144102
0.749012
0.0880905
0.0691045
0.139912
0.290567
0.0937232
0.0768403
0.115725
0.0928165
0.124703
0.710188
0.144574
0.08154
0.114659
0.0871203
0.11417
0.0847681
0.137183
0.0896627
0.70901
0.709487
0.0948931
0.172097
0.147544
0.165293
0.120782
0.0960598
0.132488
0.708518
0.0905031
0.0595717
0.114567
0.391108
0.133106
0.0681076
0.140022
0.128236
0.133491
0.0372603
0.0924195
0.745614
0.132025
0.0995415
0.19256
0.105242
0.181453
0.104325
0.169141
0.429854
0.133085
0.0814067
0.122041
0.0638185
0.128024
0.0829388
0.141809
0.151785
0.108426
0.052519
0.142226
0.0625157
0.162288
0.127439
0.158745
0.318096
0.116375
0.119766
0.141421
0.0585389
0.102146
0.104886
0.119887
0.688868
0.100407
0.144954
0.146599
0.0868346
0.153538
0.0930093
0.114483
0.0992773
0.133185
0.0655139
0.156029
0.178638
0.0983983
0.081465
0.121277
0.123457
0.132642
0.101443
0.148168
0.109087
0.137443
0.164161
0.133509
0.150594
0.181147
0.0879427
0.129032
0.41841
0.0974557
0.100288
0.140776
0.0911092
0.173113
0.128886
0.122741
0.114835
0.209021
0.0853721
0.131334
0.138864
0.181283
0.125305
0.208639
0.115239
0.173718
0.149514
0.125983
0.129562
0.190902
0.10026
0.200617
0.352274
0.139859
0.508444
0.104778
0.114759
0.187226
0.0805526
0.12116
0.317925
0.135421
0.218092
0.122085
0.536817
0.0925369
0.11837
0.167887
0.0657259
0.144367
0.0848485
0.123258
0.329567
0.148927
0.311587
0.176998
0.391768
0.140734
0.107226
0.144835
0.152132
0.151937
0.0875254
0.130141
0.500643
0.0999323
0.348226
0.120599
0.0849784
0.139066
0.06979
0.134764
0.0741208
0.132543
0.091434
0.156638
0.249166
0.16994
0.114582
0.13274
0.0924069
0.141155
0.135738
0.227163
0.0794782
0.140728
0.206848
0.142145
0.0748534
0.121206
0.0957007
0.148384
0.230733
0.133192
0.379174
0.125846
0.108151
0.155702
0.479668
0.147838
0.0987498
0.144476
0.126169
0.152357
0.114057
0.164403
0.133706
0.200577
0.116622
0.141903
0.118197
0.122357
0.0780562
0.145197
0.0889847
0.161383
0.155443
0.162784
0.0764703
0.186021
0.136114
0.138785
0.173015
0.150457
0.0680133
0.131651
0.109987
0.172203
0.259808
0.130114
0.118138
0.153193
0.069092
0.142626
0.0846267
0.245993
0.157393
0.217859
0.109721
0.156794
0.0720005
0.136988
0.0926865
0.128895
0.129192
0.23349
0.118718
0.161406
0.115675
0.277055
0.332537
0.118409
0.124784
0.127723
0.303322
0.132662
0.0842364
0.139104
0.224813
0.114049
0.12958
0.219348
0.124653
0.158259
0.177375
0.130114
0.171018
0.17707
0.0721868
0.153182
0.121264
0.192193
0.301976
0.13884
0.1148
0.146346
0.158154
0.1268
0.0488248
0.125299
0.253377
0.170996
0.492594
0.111665
0.0589924
0.130484
0.0970876
0.13889
0.0713685
0.146699
0.375633
0.126528
0.102212
0.176943
0.108683
0.192316
0.113161
0.152561
0.35656
0.136705
0.0965018
0.144647
0.112139
0.154746
0.0901858
0.157511
0.097975
0.151991
0.09031
0.185434
0.160464
0.199707
0.155118
0.18169
0.167155
0.211764
0.464698
0.120612
0.14231
0.220526
0.0973663
0.175278
0.185898
0.184646
0.236626
0.140719
0.124771
0.163721
0.151867
0.157624
0.114614
0.186235
0.287922
0.163184
0.151751
0.168292
0.0951666
0.170946
0.249489
0.158588
0.27448
0.156599
1.13097
0.101053
1.13012
0.512142
1.09219
0.220039
1.08872
0.152865
1.08398
0.158279
1.12908
0.0679708
1.08389
0.505503
0.172762
0.660315
0.995127
0.0698042
0.660055
0.148248
0.501217
0.108334
0.994699
0.113618
0.9927
0.113951
0.499246
0.140419
0.65793
0.457409
0.306292
0.112278
0.992221
0.152885
0.655166
0.113882
0.455044
0.0885733
0.990219
0.107198
0.654208
0.152909
0.449214
0.990455
0.17329
0.110024
0.989766
0.140706
0.652032
0.157807
0.648936
0.408007
0.283259
0.239956
0.37822
0.100718
0.375824
0.0977401
0.989449
0.227403
0.345726
0.993195
0.164543
0.636768
0.892315
0.177452
0.644482
0.15298
0.293003
0.0962824
0.636034
0.113337
0.287238
0.163979
0.263609
0.88534
0.254742
0.337775
0.602547
0.199209
0.250894
0.153202
0.335392
0.231167
0.293854
0.122289
0.332345
0.0974504
0.601696
0.250261
0.878624
0.179897
0.214375
0.0967727
0.878233
0.0949049
0.250274
0.167119
0.317617
0.105732
0.643532
0.617491
0.314348
0.205185
0.609845
0.242685
0.260845
0.178515
0.215354
0.128659
0.877311
0.210715
0.592956
0.869689
0.259368
0.446321
0.828595
0.111769
0.591629
0.171263
0.586806
0.0770301
0.312799
0.0960353
0.60905
0.179939
0.603769
0.127767
0.248592
0.097199
0.444779
0.164707
0.582449
0.143135
0.827169
0.491201
0.429224
0.217283
0.273002
0.191582
0.597269
0.267132
0.578898
0.120327
0.826319
0.129214
0.488202
0.807429
0.335657
0.164089
0.25161
0.0821545
0.807145
0.114903
0.442208
0.104324
0.26172
0.345507
0.335703
0.133485
0.805926
0.159224
0.574854
0.127153
0.339668
0.207224
0.475425
0.273619
0.265447
0.246005
0.45237
0.302084
0.545583
0.184423
0.315967
0.220999
0.274797
0.173635
0.803231
0.195002
0.312158
0.250177
0.363168
0.165465
0.284537
0.121687
0.439115
0.699857
0.559812
0.107475
0.699011
0.150928
0.541705
0.131733
0.435127
0.35544
0.334656
0.204447
0.331289
0.664808
0.362725
0.119071
0.663532
0.399074
0.307287
0.150812
0.556139
0.183976
0.346208
0.187485
0.658505
0.172542
0.535806
0.171363
0.318953
0.181465
0.328721
0.196296
0.652638
0.129457
0.553791
0.537901
0.496438
0.226609
0.521939
0.18714
0.546574
0.173623
0.531802
0.134709
0.49311
0.244601
0.472172
0.334606
0.48337
0.247275
0.502741
0.22245
0.534005
0.208573
0.470063
0.412218
0.434857
0.341129
0.400349
0.238952
0.484062
0.292572
0.355694
0.176344
0.463826
0.30224
0.379424
0.25143
0.437761
0.231263
0.465786
1.13039
0.131053
1.12851
0.129774
1.09171
0.119888
0.103144
0.159517
0.151164
0.193093
0.0824052
0.187955
0.136436
1.08582
1.08653
0.126897
1.08711
0.178955
0.125374
0.155504
1.08499
0.143047
