# vtk DataFile Version 3.0
Tree
ASCII
DATASET POLYDATA
POINTS 1582 float
162774 225274 273.8
162774 225274 10273.8
141774 225774 23773.8
135774 213962 30773.8
137574 217505 28673.8
134774 208050 53773.8
136286 213156 40219.8
116774 204034 45773.8
135227 209582 49707.8
154006 199774 65773.8
134910 208509 52553.8
119774 197830 67773.8
119289 203520 46659
105574 194774 52773.8
126736 202742 60772.6
134774 196014 81773.8
134341 198335 74439.8
151774 195774 81889.8
151189 199762 62415.8
170098 180774 72773.8
119971 197898 66863.4
103774 186034 78773.8
163741 187700 71948.6
171966 182774 92773.8
107683 194352 52847.8
93513.8 180774 61773.8
119833 197850 67500.6
117774 191942 84773.8
167410 182066 71513
174058 164774 66773.8
135393 197195 80693.4
140774 195998 100774
118890 193825 82350.2
121774 193998 100774
104021 186624 76755.4
90773.8 177974 81773.8
170772 171509 66571.8
171006 159774 50773.8
103848 186211 78168.2
104774 188050 95773.8
171551 181550 90029.8
179886 172774 106774
94729.4 180639 60877.4
81661.8 164774 68773.8
137652 196381 97988.2
135774 195998 113774
173214 165829 67650.6
180002 147774 73773.8
92213 177886 81462.6
80773.8 167774 86397.8
119735 194060 97864.2
112774 194774 115522
139837 196113 99938.2
157078 193774 103774
177454 152413 70298.6
178774 135774 64257.8
172481 167533 67327
181998 159774 87773.8
178211 172903 102673
183998 156774 109774
91205.4 177947 81680.6
85773.8 179270 99773.8
114862 194559 110225
100774 192002 112774
137831 196132 109649
145774 195998 123774
151906 194475 102623
160774 190070 93773.8
179465 147809 73119.4
183994 133774 79773.8
136391 196038 112536
125774 197998 127774
113392 195131 115099
110774 197986 128774
155244 193561 104215
165774 189294 111774
178462 136470 63769.4
179194 122774 57773.8
182238 137706 76569.4
182774 126774 73521.8
85239 169462 83768.2
77533.8 148774 82773.8
181509 163149 109381
183998 152774 128774
182729 157785 110413
183998 140774 115774
179709 159489 83093
183998 142774 93773.8
143489 196034 122340
144774 195998 140774
79845.4 154980 83072.2
81773.8 138774 66653.8
178857 129074 60531.8
176774 127774 43977.8
86989.4 176532 93416.6
77773.8 163774 109938
80538.6 167601 104981
77545.8 150774 102774
85919.4 178566 99508.6
83773.8 181090 113774
111901 197494 127182
113774 199978 143774
145089 196009 123344
159074 193774 128774
144183 196015 132294
131774 198002 140774
183045 152915 124517
181994 133774 135774
179383 172813 105543
177230 177774 118774
178596 128265 47506.6
185774 128774 37257.8
78227.4 150636 82863.4
79537.8 136774 92773.8
183712 152816 127497
183998 156774 142774
82375 139583 69787.8
85573.8 127774 63773.8
182674 142976 128213
183022 129774 122774
111112 197838 128296
101134 193774 139774
84773 180084 111628
86773.8 178774 125958
85533.4 179586 117073
91773.8 189254 123774
143848 196114 139508
139974 196774 157774
112568 198454 140834
108774 193886 154774
182198 136535 133505
179814 137774 151774
176796 177694 115902
169978 186774 123774
78922.6 158514 103789
80773.8 148222 115774
182055 134602 135093
178050 120774 131774
154837 194194 128693
163774 191186 141774
79039.8 142041 89007.8
81765.8 128774 82773.8
177100 177750 117912
181978 167774 123774
140521 196886 147898
129774 199978 153774
80070.2 152133 111220
81485.8 138774 108774
182064 130639 123674
179998 117774 119774
78603.4 164922 108451
82773.8 165774 123966
181483 136906 138986
175838 124774 146774
82839.4 166621 122665
87773.8 169774 137050
179412 136490 148444
172774 130774 159958
104127 194993 136331
94773.8 187958 134774
183609 155425 140891
181774 154774 158790
109238 193564 152005
104774 182774 161882
79885.8 137499 91294.6
83553.8 125774 93773.8
108913 193789 153943
115774 193014 166774
85966.6 129138 63379.4
91545.8 115774 53773.8
160378 192329 136803
154774 192774 147954
83452.6 136450 67865.4
85549.8 137774 54773.8
140277 196664 157067
141082 195774 171774
85691.4 128183 63655.4
90321.8 111774 73773.8
106470 186874 158129
97589.8 176774 153774
173619 131057 156963
166006 121774 160774
84319.4 167567 126980
86525.8 156774 135774
179756 119020 119622
176774 107522 114774
83294.2 127513 92684.2
88773.8 115582 90773.8
113716 193247 162925
123590 198774 164774
178113 122687 132886
170774 107774 133318
88773.8 118410 68023
93485.8 108774 63773.8
183673 153808 132587
182014 165774 136774
80834.6 144919 109899
85497.8 136774 119774
172569 183323 120782
173978 182774 134774
83475.8 126295 93447
86773.8 121662 102774
115156 193083 165619
114774 183774 175242
175666 126106 144842
168774 115666 148774
86985 168021 134494
90773.8 162774 143970
170117 126787 158716
164774 127774 171114
181089 155822 156698
177230 157774 171774
84837.4 137399 117107
89773.8 125530 119774
101675 181420 155777
101554 166774 163774
173027 130859 159059
172774 137774 167326
85511 161739 131729
84329.8 149774 127774
141913 195245 167047
149030 189774 174774
89266.2 116633 91480.6
94773.8 107574 90773.8
114889 186567 172355
108774 175774 171958
176739 109049 115943
170774 96253.8 113774
86656.2 121809 100535
92293.8 113774 104774
140389 196766 152849
149890 192774 158774
178696 157032 166045
175222 147774 171774
103113 183056 156483
97537.8 184774 145774
141603 195142 171183
141774 193186 184774
177417 158295 170010
174062 163774 176774
90699.4 113087 71456.2
97773.8 100774 74881.8
183881 156369 142209
181998 166774 146774
166221 122268 159914
157270 112774 159774
91539 114887 103209
97773.8 106234 101774
174472 104187 115119
175846 99773.8 105774
86738.6 121706 102102
90309.8 119774 111774
171567 97768.6 113297
169310 91773.8 107774
94731.8 105789 72278.6
97773.8 98773.8 66809.8
161499 116577 158854
159982 110774 152774
97201.8 100248 67021.4
99553.8 95773.8 57773.8
175152 105645 115366
167774 98281.8 123774
86713.4 132889 118121
93773.8 129774 133970
165231 128443 169699
158774 131574 183774
176264 150551 170055
169990 151774 185774
102111 167153 161737
102774 154774 165970
173381 149653 175967
167774 141774 181970
92067.4 114108 104305
100130 107774 114774
111097 179875 172109
114774 167774 183970
171012 96708.2 113631
163138 89773.8 116774
174496 162276 176243
168774 166774 189890
102363 162449 163346
107626 159774 174774
175185 99948.2 107177
173774 92509.8 97773.8
96902.2 107526 101181
103574 98773.8 94773.8
92707.4 129355 130099
99773.8 120774 136886
163565 190828 141309
170774 185774 150882
171094 165820 183472
167774 173774 185962
148989 193292 157229
161774 188774 159166
169144 92259.4 108145
163774 83681.8 99773.8
102081 100612 94963.8
105774 95025.8 83773.8
181931 165085 146941
177890 174774 156774
98811.4 108504 111807
106262 100774 113774
146895 191415 172456
156774 187774 168906
170176 151765 184931
165810 154774 196774
97602.2 99215.8 66873.4
105774 88773.8 66881.8
168313 100216 123323
161266 96773.8 131774
99939.4 108286 114521
103574 108774 123774
93962.6 129840 133648
99005.8 131774 145774
169284 144811 180961
164542 143774 189774
106785 159516 172812
111774 152774 182802
104027 103093 113184
107574 96773.8 104774
173163 93284.2 98822.6
169978 86773.8 90773.8
94827.4 126781 132135
97773.8 116774 126890
177410 173633 154747
171558 181774 160774
105608 89599.8 66569.4
112186 82773.8 65773.8
165815 86941.4 102955
155774 81561.8 105774
109878 155336 179006
111510 144774 177774
161196 84466.6 104251
154774 79549.8 95773.8
148325 189879 174571
151774 184550 181774
167941 170773 186010
158774 176774 193954
177746 174432 156166
175882 174774 165774
105591 101469 113597
112686 97773.8 120774
172207 91331 96408.2
176774 93517.8 84773.8
97720.2 132372 143620
99549.8 139774 153774
169636 87529 92325.8
161966 80773.8 87773.8
110557 98882.6 118621
112774 103738 132774
111695 153735 182425
117030 151774 191774
112017 82998.2 65468.6
119102 75773.8 63773.8
169875 87000.2 91239.4
170774 83773.8 82893.8
98854.6 136961 149915
94773.8 148386 149774
99374.6 121296 135334
104002 115774 136774
111020 147943 178143
117462 140774 186774
112166 100038 123754
117774 97773.8 127990
155568 187917 170266
167214 181774 171774
111659 144990 177962
114358 134774 177774
99737.4 138844 153235
103026 141774 161774
175774 92123 86655
178442 87773.8 75773.8
113116 139473 177861
110774 133590 168774
164764 82578.2 87983.4
162774 76773.8 77889.8
113450 102744 131474
118774 103774 140886
117336 141374 186663
122534 136774 193774
112047 98106.6 120128
120774 93461.8 120774
164543 78665.4 80566.2
170434 75773.8 71773.8
84778.6 154321 129277
89773.8 143774 137890
113985 136184 177800
121774 129774 184434
163536 76898.6 78144.2
161774 70773.8 69957.8
114246 135197 177782
116374 126774 171774
103205 141530 161554
106350 143774 168774
116325 103300 136556
112774 110774 143946
120892 139452 191864
126774 141774 201974
110403 135244 169752
106774 132774 161882
119258 93919.4 120057
126774 87773.8 116898
118039 103632 139587
127578 99773.8 141774
86846.6 157414 135551
90773.8 151774 141982
113873 109456 143140
113774 115774 152442
123953 101240 140943
128774 104774 150030
113103 110379 143704
106774 118310 145774
125445 88873 116771
131774 83773.8 109898
126375 88103.8 116860
135654 85773.8 119774
109129 116159 146057
107774 122774 152970
127612 104520 148970
129774 109774 159986
90671.8 162633 143601
93657.8 157774 150774
113811 113373 148907
121102 111774 155774
130819 85333 112566
140774 82161.8 111774
131385 86845.4 118433
134750 89773.8 128774
93427.8 158806 149847
97773.8 155774 157990
131770 84379 110055
135774 81525.8 99773.8
114073 115213 152086
115774 120518 162774
133291 83294.6 106148
127774 83549.8 98773.8
126490 100213 141525
130774 95453.8 134774
115810 117149 157323
122226 115774 162774
116695 128208 173420
122774 120774 171946
122006 115654 162174
128774 113774 166862
120464 123599 172506
127774 121774 179970
138834 219986 27203.8
145106 211774 35773.8
136314 215025 30143.8
126774 209934 32773.8
143366 213851 34884.6
144774 210774 45949.8
126201 208873 40964.6
120774 207778 38773.8
135545 210654 46861.4
126774 207814 50773.8
145310 205920 54504.2
151254 205774 54773.8
128876 204765 57336.2
[...]
CELL_DATA 1581
SCALARS radius float
LOOKUP_TABLE default
2.122e-314
100
100
1.15555
1.15376
0.113756
0.297768
1.14711
0.992803
0.809251
0.992027
0.131883
0.0754749
0.293547
0.91123
0.593576
0.119111
0.589704
0.191202
0.80384
0.596933
0.816294
0.442709
0.754717
0.0771795
0.288741
0.0406233
0.59687
0.0785131
0.441884
0.131891
0.587497
0.152103
0.592784
0.169662
0.813211
0.431972
0.166513
0.052236
0.167995
0.109545
0.748598
0.168162
0.26499
0.292846
0.558511
0.350565
0.228862
0.558492
0.71315
0.585915
0.139532
0.0648486
0.291782
0.221376
0.318251
0.380457
0.294477
0.305575
0.72845
0.0479124
0.558375
0.581197
0.168919
0.293969
0.528959
0.229426
0.225743
0.205492
0.129501
0.0687196
0.292712
0.0583884
0.581001
0.136203
0.212157
0.0729305
0.308376
0.127076
0.187817
0.0911769
0.709535
0.208318
0.721296
0.0759904
0.204891
0.256307
0.197067
0.355299
0.462334
0.633015
0.468568
0.289346
0.172139
0.269499
0.532279
0.366671
0.456761
0.141783
0.255726
0.569429
0.22563
0.0618236
0.354674
0.455348
0.164017
0.482811
0.638661
0.0665608
0.304519
0.222503
0.219511
0.630478
0.144838
0.069451
0.482332
0.0885647
0.462229
0.516991
0.496403
0.056304
0.187121
0.0906769
0.222937
0.172669
0.181023
0.15361
0.449445
0.564357
0.154921
0.289343
0.48482
0.185309
0.275786
0.446986
0.170808
0.0704136
0.287946
0.231235
0.313396
0.626228
0.157242
0.0675394
0.182268
0.422918
0.241208
0.442406
0.139539
0.155282
0.491286
0.111106
0.363238
0.3076
0.43943
0.347602
0.127877
0.42759
0.175562
0.109305
0.173757
0.436117
0.241153
0.330037
0.520757
0.624985
0.113425
0.0652003
0.329186
0.425345
0.211114
0.277903
0.199339
0.442019
0.231432
0.389709
0.132048
0.0566206
0.42501
0.107152
0.519241
0.389149
0.247567
0.307665
0.234389
0.0764816
0.487101
0.609595
0.260087
0.133743
0.294694
0.176749
0.259087
0.382568
0.261277
0.459427
0.157229
0.147956
0.43682
0.110198
0.26416
0.0585003
0.609415
0.0796439
0.292742
0.285338
0.135493
0.257006
0.229875
0.331398
0.282461
0.431293
0.139629
0.415135
0.20721
0.112901
0.507012
0.0789443
0.244861
0.197389
0.173094
0.27365
0.338233
0.162427
0.182927
0.114166
0.286836
0.0887488
0.482447
0.595942
0.238836
0.394698
0.241896
0.335695
0.348692
0.508871
0.201826
0.213292
0.220966
0.0912534
0.340239
0.0971444
0.380469
0.0632352
0.239694
0.150823
0.255512
0.293147
0.571292
0.333957
0.386743
0.0623962
0.237408
0.189493
0.312239
0.127009
0.371141
0.171629
0.202291
0.350884
0.199351
0.456435
0.25814
0.126755
0.411157
0.203456
0.303564
0.109479
0.331768
0.0905259
0.501847
0.229901
0.289911
0.0615417
0.56989
0.261851
0.17806
0.0723508
0.18591
0.0944231
0.337798
0.128862
0.496845
0.372546
0.183106
0.136695
0.282884
0.261742
0.368315
0.0715842
0.27631
0.296188
0.193588
0.194613
0.1893
0.0787191
0.310562
0.103239
0.271568
0.0876789
0.235718
0.210444
0.557078
0.237258
0.293716
0.0965521
0.231257
0.0709872
0.349913
0.201679
0.207996
0.0669242
0.208164
0.066025
0.360326
0.176934
0.187693
0.0969486
0.492756
0.552175
0.1654
0.0955387
0.37044
0.159068
0.240478
0.172694
0.183732
0.0946426
0.312491
0.284145
0.191401
0.468753
0.255335
0.168433
0.234996
0.084175
0.233672
0.129625
0.28767
0.0913362
0.175877
0.550172
0.122225
0.323078
0.257688
0.118051
0.312986
0.179828
0.303324
0.475779
0.388928
0.0902201
0.234408
0.0898796
0.293069
0.0852503
0.1732
0.190692
0.287348
0.116935
0.215281
0.403759
0.309853
0.467914
0.173837
0.110873
0.288353
0.0672325
0.403137
0.252815
0.196326
0.131004
0.245868
0.363201
0.260147
0.140843
0.292844
0.0937847
0.466655
0.163514
0.293864
0.0766901
0.387931
0.21584
0.24694
0.132737
0.17492
0.316413
0.253203
0.124777
0.235828
0.079687
0.314719
0.11326
0.244999
0.320918
0.409305
0.160762
0.215745
0.129431
0.248997
0.367189
0.187231
0.306816
0.160936
0.0877851
0.165214
0.263801
0.368925
0.279566
0.191587
0.0796452
0.261359
0.213597
0.341316
0.0760715
0.210331
0.141192
0.230591
0.18884
0.247255
0.211831
0.195486
0.344164
0.211396
0.308983
0.217317
0.146538
0.183295
0.121787
0.197459
0.0871582
0.306654
0.0917438
0.341977
0.182635
0.227136
0.107575
0.179541
0.306381
0.223963
0.134984
0.292836
0.1977
0.276035
0.2243
0.240017
1.15413
0.178407
0.0630652
0.106889
0.0797346
0.172932
0.295201
0.0878064
1.14688
0.0964488
0.0860937
0.808684
0.988456
0.219005
0.0440704
0.130222
0.207163
0.100533
0.80743
0.0941421
0.0797073
0.119392
0.0663409
0.188501
0.0744675
0.163657
0.0661037
0.204894
0.0677396
0.159694
0.0742408
0.201593
0.59132
0.120734
0.802415
0.129459
0.179414
0.138207
0.0506624
0.129351
0.0610753
0.199706
0.0600683
0.148914
0.0932694
0.192681
0.0849555
0.115892
0.440067
0.101965
0.584152
0.151011
0.749379
0.208444
0.0619545
0.165311
0.0526212
0.227931
0.154012
0.17548
0.100055
0.138408
0.0863766
0.157044
0.588541
0.129107
0.0755927
0.225125
0.0795506
0.169852
0.208011
0.134059
0.18884
0.13135
0.290403
0.101484
0.114667
0.106527
0.710036
0.167856
0.74595
0.135277
0.286757
0.108048
0.812762
0.0961542
0.117208
0.172399
0.0694027
0.122043
0.0962601
0.315288
0.727042
0.130764
0.0519351
0.126654
0.114233
0.148133
0.108427
0.258796
0.199792
0.21073
0.188158
0.216701
0.117935
0.121721
0.524866
0.183842
0.719872
0.130414
0.523756
0.16292
0.0448399
0.140272
0.0726489
0.193719
0.0645992
0.131176
0.0707153
0.134006
0.0879585
0.18152
0.279535
0.147925
0.136065
0.464712
0.101606
0.183914
0.0712313
0.180206
0.0733509
0.122169
0.255413
0.15778
0.0683572
0.130052
0.278464
0.138064
0.227829
0.153539
0.137241
0.148384
0.0739108
0.157683
0.246296
0.119845
0.0714474
0.142644
0.15416
0.161846
0.249038
0.108524
0.0788648
0.162982
0.629515
0.104652
0.122877
0.209236
0.228599
0.144139
0.568221
0.105447
0.0564874
0.141915
0.187574
0.179301
0.465485
0.224747
0.0591149
0.150634
0.0703842
0.166728
0.142505
0.184362
0.109082
0.207066
0.0590499
0.185603
0.106353
0.220653
0.561649
0.137055
0.0588824
0.152407
0.146822
0.19642
0.0736632
0.134964
0.0888719
0.220016
0.128676
0.157738
0.0945055
0.177047
0.144636
0.196821
0.295179
0.150151
0.119338
0.231049
0.109922
0.156322
0.0538378
0.128994
0.108368
0.356795
0.100832
0.156767
0.188805
0.168171
0.420032
0.159696
0.124172
0.14164
0.191273
0.175419
0.073315
0.144083
0.121438
0.151178
0.179394
0.153769
0.150431
0.206009
0.060381
0.174368
0.0805551
0.139525
0.185051
0.149874
0.109465
0.137085
0.303605
0.157329
0.115632
0.132776
0.431675
0.11811
0.0930253
0.148393
0.145486
0.157653
0.101725
0.161966
0.117005
0.160977
0.115655
0.256553
0.0799882
0.169843
0.0613034
0.146958
0.257803
0.18269
0.0719014
0.13296
0.155983
0.170401
0.142879
0.243708
0.0861636
0.168196
0.31708
0.155948
0.0644829
0.158966
0.113312
0.505118
0.218323
0.192984
0.123616
0.246606
0.0681175
0.146042
0.106922
0.24697
0.350733
0.113728
0.11032
0.152646
0.113714
0.188994
0.23511
0.160546
0.0911849
0.185944
0.0616634
0.122907
0.177588
0.19483
0.0751064
0.203867
0.152792
0.2062
0.108921
0.168748
0.122049
0.157889
0.0649059
0.151026
0.0790385
0.199399
0.407956
0.117223
0.158816
0.222341
0.151001
0.164914
0.342413
0.131023
0.155061
0.218391
0.237128
0.149595
0.570129
0.104339
0.144882
0.277655
0.149161
0.17274
0.0708605
0.153968
0.290227
0.152224
0.24184
0.156181
0.118895
0.170212
0.115282
0.166178
0.166703
0.185265
0.205327
0.152398
0.236736
0.223063
0.171991
0.174663
0.321526
0.17442
0.133913
0.229573
0.176551
0.251468
0.0603327
0.203576
0.243854
0.187529
0.105989
0.214783
0.315358
0.22559
0.110765
0.220634
0.0663386
0.131275
0.0828128
0.196913
0.112657
0.191357
0.0695469
0.179698
0.344754
0.17974
0.189993
0.176617
0.457201
0.195118
0.148716
0.18776
0.121165
0.168874
0.125718
0.171602
0.148494
0.178882
0.114262
0.215362
0.1727
0.265215
0.29586
0.166518
0.128821
0.249853
0.184037
0.231594
0.238781
0.144741
0.127775
0.238176
0.146373
0.212702
0.174574
0.201579
0.125689
0.181072
0.260882
0.173091
0.318487
0.205439
0.164872
0.176471
0.12056
0.220148
0.15085
0.211399
0.200373
0.257765
0.167495
0.268129
0.0864859
0.190565
0.129783
0.257585
0.0696381
0.15919
0.165294
0.23254
0.494004
0.127901
0.112897
0.19338
0.176283
0.210932
0.10463
0.202485
0.173719
0.228203
0.3021
0.15328
0.242139
0.223604
0.111256
0.162213
0.120821
0.211167
0.116034
0.200506
0.163826
0.227898
0.152191
0.202562
0.0719197
0.183625
0.0950609
0.163792
0.0747603
0.155368
0.382747
0.132179
0.361063
0.142496
0.247036
0.140563
0.110385
0.175323
0.204557
0.187165
0.183054
0.182987
0.163173
0.172156
0.15047
0.189976
0.156117
0.195123
0.261149
0.222578
0.135402
0.234863
0.158338
0.191812
0.1152
0.167062
0.146473
0.204687
0.0865055
0.192018
0.127767
0.227285
0.183276
0.245942
0.0944508
0.162979
0.120344
0.137262
0.0619818
0.132913
0.214772
0.0842251
0.809009
0.0779935
0.0454215
0.097342
0.807857
0.117494
0.592993
0.085076
0.0723141
0.107544
0.168643
0.123893
0.290567
0.0913609
0.0712477
0.11548
0.0897781
0.101195
0.803537
0.0837774
0.0863606
0.815971
0.115685
0.136159
0.596103
0.0935575
0.0926099
0.17078
0.108864
0.126244
0.285875
0.0891992
0.815665
0.0848888
0.102495
0.102836
0.0745617
0.0965501
0.0658712
0.119958
0.115191
0.59133
0.093696
0.184993
0.0718386
0.105003
0.0316414
0.0989893
0.590605
0.0912538
0.131357
0.10182
0.0901341
0.124272
0.74743
0.125159
0.127751
0.141201
0.149212
0.108992
0.0563521
0.117554
0.062229
0.137051
0.0763872
0.125222
0.557641
0.0933222
0.0533596
0.128347
0.0428201
0.104169
0.0777193
0.162107
0.109039
0.138004
0.0816518
0.12807
0.138295
0.117325
0.556159
0.127325
0.113655
0.121247
0.554378
0.118111
0.0936967
0.112224
0.110607
0.13706
0.0484894
0.115321
0.078655
0.116411
0.151523
0.146534
0.274085
0.107804
0.709087
0.0877929
0.134319
0.177069
0.30973
0.117652
0.203401
0.145633
0.0858822
0.126128
0.152651
0.179678
0.144837
0.1433
0.0782603
0.137672
0.199189
0.118077
0.45515
0.100158
0.106399
0.108323
0.0840772
0.133892
0.11192
0.168907
0.0974666
0.13221
0.117315
0.191173
0.0836693
0.15402
0.122458
0.135593
0.130174
0.168464
0.123577
0.12669
0.141907
0.167749
0.0609034
0.169559
0.12545
0.155913
0.0440936
0.117822
0.0633682
0.10376
0.0993414
0.156059
0.301251
0.0965296
0.447604
0.103579
0.360097
0.107226
0.172618
0.15515
0.0616949
0.119948
0.102941
0.149202
0.0607921
0.107277
0.154805
0.190077
0.1009
0.133714
0.101915
0.136816
0.46331
0.0967403
0.284028
0.0986946
0.0813833
0.14814
0.135098
0.15134
0.437236
0.108138
0.122857
0.119013
0.0978029
0.154657
0.0840904
0.125567
0.353278
0.109974
0.0826638
0.135008
0.0816756
0.131938
0.0811928
0.12498
0.105573
0.131387
0.109517
0.422572
0.0972712
0.490011
0.434602
0.108097
0.169594
0.140046
0.308579
0.111802
0.0867887
0.127307
0.0738897
0.1468
0.0942867
0.145499
0.270404
0.106391
0.253477
0.115733
0.12807
0.17988
0.0956908
0.140265
0.0951129
0.144765
0.0923541
0.177041
0.419509
0.117674
0.0868605
0.151579
0.0769257
0.142003
0.487729
0.117845
0.0939431
0.160296
0.103491
0.485539
0.179194
0.210367
0.483446
0.113803
0.0735573
0.207325
0.149316
0.150688
0.271949
0.134327
0.113723
0.195227
0.111859
0.164121
0.608464
0.101917
0.0991873
0.141228
0.134847
0.13212
0.122473
0.154844
0.125182
0.127146
0.0547874
0.194041
0.0560022
0.147221
0.118105
0.168471
0.0701312
0.145444
0.105432
0.236944
0.376034
0.123929
0.502827
0.120401
0.167619
0.204826
0.1383
0.135886
0.14488
0.197875
0.211953
0.172796
0.133756
0.17
0.0922442
0.187678
0.230182
0.105823
0.161273
0.152594
0.0977494
0.204783
0.0835449
0.161324
0.134176
0.185195
0.110503
0.156187
0.0807002
0.179939
0.118766
0.190493
0.499718
0.11701
0.140759
0.176402
0.276453
0.1147
0.165499
0.141579
0.13623
0.140576
0.0960259
0.176233
0.0619212
0.187065
0.566914
0.14235
0.136777
0.158571
0.260782
0.131863
0.22475
0.120383
0.102651
0.134953
0.155242
0.138975
0.226216
0.132581
0.18366
0.213317
0.0911758
0.128596
0.116126
0.182409
0.13076
0.173166
0.111048
0.202773
0.150608
0.194201
0.116271
0.178455
0.102585
0.160221
0.102755
0.167718
0.191659
0.125571
0.117977
0.190847
0.1758
0.165772
0.125506
0.171394
0.14851
0.155107
0.0576148
0.117799
0.199131
0.171915
0.113787
0.163034
0.131446
0.13111
0.0875605
0.163639
1.10401
0.101107
1.10311
0.987221
0.719803
0.220046
0.710992
0.158005
0.697062
1.10113
0.193315
0.0728352
0.696797
0.984677
0.169161
0.177088
0.690283
0.982472
0.185673
0.0838119
0.689871
0.166657
0.980871
0.0943387
0.98058
0.474955
0.941934
0.149691
0.687513
0.160266
0.468793
0.0719642
0.468227
0.097563
0.941585
0.132745
0.68586
0.163577
0.682744
0.125674
0.465189
0.201149
0.938515
0.139949
0.680778
0.451394
0.205616
0.148744
0.678403
0.0951095
0.193795
0.113132
0.937967
0.384463
0.327561
0.170097
0.67482
0.864441
0.563832
0.112937
0.381187
0.177792
0.861926
0.0875871
0.861625
0.123001
0.321674
0.211752
0.358027
0.0872953
0.200232
0.167358
0.345397
0.117704
0.562117
0.103497
0.85556
0.137437
0.543726
0.856065
0.23086
0.151682
0.672256
0.0944937
0.855176
0.225411
0.279488
0.134177
0.268775
0.184022
0.852326
0.26795
0.280066
0.122979
0.271928
0.206961
0.665653
0.546637
0.242575
0.145317
0.209806
0.526029
0.779492
0.147927
0.540051
0.0904105
0.525137
0.117359
0.664434
0.648681
0.273123
0.293708
0.509385
0.125222
0.522753
0.243976
0.636966
0.147832
0.222688
0.116201
0.287516
0.155014
0.777443
0.19146
0.255858
0.493639
0.282574
0.112984
0.235616
0.1239
0.50693
0.152868
0.256124
0.143695
0.489546
0.117489
0.776547
0.148965
0.634239
0.153491
0.502196
0.103118
0.277921
0.437022
0.323504
0.168652
0.428484
0.1381
0.775089
0.165452
0.256812
0.131818
0.316038
0.192687
0.628254
0.243112
0.615877
0.143461
0.613272
0.249017
0.599269
0.302933
0.370526
0.120851
0.499852
0.126843
0.295331
0.146028
0.773357
0.208018
0.768308
0.761538
0.22819
0.222654
0.273809
0.229609
0.338437
0.285158
0.576924
0.119478
0.57521
0.246315
0.479062
0.598276
0.610468
0.090222
0.223389
0.0927531
0.597532
0.323279
0.423878
0.211706
0.588539
0.158625
0.606877
0.219383
0.56437
0.144638
0.313324
0.32018
0.35125
0.156208
0.340634
0.139976
0.585888
0.162006
0.603004
0.543723
0.343049
0.160884
0.538987
0.194667
0.556542
0.103706
0.33986
0.150846
0.599841
0.232868
0.298615
0.186868
0.531393
0.305714
0.495264
0.220367
0.544778
0.142256
0.597162
0.171038
0.488369
0.515126
0.424062
0.231145
0.49912
0.197622
0.409244
0.318985
0.437988
0.259673
0.370917
0.212059
0.53385
0.367324
0.421303
0.183699
0.351322
0.196236
0.424442
0.260315
0.512365
0.25919
0.385675
1.10339
0.131103
0.986339
0.137137
0.717949
0.142176
0.100561
0.156373
0.139949
0.199278
0.130343
0.178624
0.699758
0.133536
0.701375
0.243218
0.12482
0.231726
0.121086
0.220135
0.157564
0.189043
0.694146
0.156688
0.162635
0.142974
0.141356
0.152927
