# vtk DataFile Version 3.0
Tree
ASCII
DATASET POLYDATA
POINTS 1582 float
162774 225274 273.8
162774 225274 10273.8
141774 225774 23773.8
135122 214198 30497.8
137117 217671 28480.6
136774 208774 53889.8
136987 214290 38136.2
116774 203986 46773.8
136838 210429 49163.8
154006 199774 65773.8
122838 207077 44182.6
119774 197774 67933.8
117328 203778 46707
105574 194774 52773.8
150127 200943 65028.2
159774 191774 82093.8
117674 198514 62808.6
108774 189786 76773.8
119823 197624 67677.4
127774 194006 84773.8
127091 195551 78930.2
142774 196002 85773.8
155336 195992 74243.8
173814 173774 69773.8
159749 192187 80493.4
173226 181774 94773.8
111444 192404 72584.2
93573.8 180774 68773.8
167651 181690 73158.2
175990 174774 82773.8
170670 175851 69679.8
173806 159774 56773.8
127569 194469 83020.6
117590 192774 100774
122180 193554 92607.4
106774 188006 92773.8
136814 195831 83173
138774 195998 107774
98935 184263 69917
88773.8 175978 84773.8
172614 165883 61678.2
177970 149774 68773.8
170814 181746 94124.2
180014 169774 108774
93447.8 179789 77939.8
81589.8 165774 74773.8
173149 161281 57076.6
172774 151774 43873.8
119222 193493 99875.4
117774 195962 114774
137559 195894 92521.4
155774 193978 101774
173905 174955 79548.2
181942 158774 83773.8
177254 173365 104379
183774 157078 101774
88915.8 176445 84468.6
80773.8 171962 95773.8
118079 192989 100504
101650 191774 109774
139225 195965 107373
141774 195998 123774
177360 152303 68397.8
183942 136774 79773.8
179335 147645 71810.6
179966 127774 62773.8
181823 141774 76110.6
183998 143774 89773.8
181296 163267 102764
183998 152774 117774
182971 156761 112070
183774 163066 124774
84507 166898 75068.6
79557.8 146774 70773.8
82465 166111 74862.2
77449.8 154774 84773.8
82272.2 171606 93423.8
75773.8 160774 100790
153169 193134 102173
167290 188774 113774
81223.4 171855 95068.6
84773.8 181878 108774
116765 195555 112851
107774 197814 129774
141798 195987 123005
144774 195998 139774
141781 195995 123543
124774 198002 131774
158535 191477 106581
156774 193998 122774
179387 136178 63927.4
177774 126774 43257.8
183690 153970 116063
183998 138774 119774
183905 153133 117261
183998 149774 133774
183963 151050 127499
183994 138774 131774
81016.6 153397 73677
77605.8 143774 80773.8
80736.2 147942 71602.2
83493.8 134774 67773.8
183589 161043 122884
183998 160774 135774
83038.6 138049 67547.4
85561.8 132774 58773.8
78817.4 156575 83917.8
77545.8 145774 97773.8
110761 197229 128005
111774 197994 149774
84477.8 179481 108337
87773.8 184774 122878
78168.6 148970 95852.6
79541.8 147774 110774
183419 142231 131957
179970 132774 143774
158790 192541 118227
166774 189890 130774
108768 195917 138485
102774 191886 146774
162361 191491 126079
159774 193186 135774
142192 196276 135725
133774 198014 152774
86521.4 182763 117353
85593.8 173774 128774
183252 140372 119136
181774 122774 122798
181005 135611 140229
177994 123774 137774
108909 197591 129101
97773.8 193230 123774
180280 133625 142710
175842 132774 156774
105152 192581 145437
104774 186774 157946
183697 150807 133011
181994 151774 154774
137588 197391 150462
137774 197774 164002
77732.6 146733 97197.4
81493.8 130774 90773.8
111242 196982 148313
113774 194774 161110
83357.4 135757 67705.8
87773.8 118442 69773.8
177883 133165 150305
171850 123774 153774
164038 190883 127863
173258 183774 124774
85742.2 126407 68822.6
89637.8 118774 56773.8
88154.6 184329 122167
94341.8 187774 134774
79129.8 148133 106297
82353.8 137774 112774
181039 124197 121632
177882 112774 121774
86395.8 175641 127230
89533.8 169774 139774
159689 192324 135256
155774 192530 147774
79894.6 147537 110171
83561.8 144774 122774
177612 124482 137999
173190 112774 135774
87140.2 172115 131673
85661.8 161774 134774
81217.4 133517 93208.2
86773.8 119594 95773.8
104596 186392 155295
103706 178774 162774
173660 126591 152733
167774 125570 163774
104115 182278 159333
97773.8 172774 156802
181555 152753 152669
179774 154774 164790
113230 194250 159175
114774 186774 171974
85045.8 123932 93615.8
88321.8 115774 86773.8
113611 194617 160529
123662 199774 163774
89832.6 118238 59551.8
93533.8 110774 52773.8
138309 197250 162274
141954 194774 177774
83795.8 136467 64915.4
85449.8 142774 54773.8
166168 189479 129756
173978 182774 135774
178707 115372 120324
175882 102774 111774
87871.8 119736 70281
93553.8 107774 75773.8
173979 116363 137393
167774 109138 141774
83284.6 128341 93428.2
86153.8 123774 104774
82498.2 139171 112425
89601.8 127774 122774
155347 192828 146008
149774 193830 155774
176733 134093 154760
174774 140774 165958
103487 192094 146373
96773.8 181962 146774
172393 124619 153461
166774 115774 151370
86867.4 120572 95653.4
93737.8 110774 102774
113937 187252 169085
111774 175774 176022
172833 113351 136029
167318 101774 130774
90940.2 113276 73247
95485.8 104774 65773.8
175822 105195 114503
170006 95773.8 114774
168383 126294 162501
160774 128774 175978
94591 106375 65645.4
97485.8 100774 56773.8
183607 161687 133553
181998 166774 144774
167957 125787 163392
159218 115774 161774
179632 155068 163055
175326 160774 175774
103893 178881 161579
103554 166774 166774
172681 100108 114649
171986 94773.8 106774
177509 155930 168550
172774 150222 177774
172445 183519 135808
177430 177774 142774
174603 138830 164336
169774 139774 175970
92769.8 109425 75015.8
98289.8 103774 89773.8
169056 186738 132540
168774 187950 143774
175164 160662 175621
173018 164774 181774
103365 168643 164951
101554 156774 163774
163209 129380 174222
160774 133774 185110
86763.4 123835 103663
91609.8 118774 113774
152730 192831 153014
153774 189774 166054
92479.4 113279 102251
97997.8 109774 112774
171499 95800.6 109417
166774 88773.8 105970
95217.4 105254 65735.4
100774 95569.8 65773.8
176307 178765 142293
179022 173774 152774
98938.2 98567.8 64780.2
101554 92773.8 58773.8
170093 140107 175236
166774 141774 183322
88967.8 130431 122106
98773.8 124774 137962
170809 97073.8 114736
163266 93773.8 123774
172873 164223 181373
167842 168774 190774
98909.8 174080 156641
93657.8 163774 150774
112778 177333 175530
114774 164774 185890
168607 142565 180381
167774 153494 191774
102387 162233 164315
107554 153774 173774
171840 95081.8 107567
175854 95773.8 95773.8
97657.4 104491 84748.6
107574 94773.8 90773.8
134918 197827 152080
122774 200002 146774
167295 89904.6 105894
161886 82773.8 100774
96342.2 110825 109617
106290 99773.8 110774
168904 187318 142421
169158 185774 155774
103465 98532.6 87063
108686 91773.8 82773.8
152963 189849 165366
151774 187422 174774
97829.8 110185 112451
103774 108282 123774
94137.4 128579 131817
95773.8 134578 142774
169295 167937 186337
162774 176774 187954
100811 96107.4 65495
108774 86773.8 67969.8
90518.6 129875 125019
96125.8 119774 126774
174329 95511 100255
169774 86281.8 90773.8
106385 89573.8 67227.4
108774 83561.8 59773.8
102790 103362 109249
106158 97773.8 102774
113796 165713 182542
113562 153774 185774
96031.8 132705 140822
100774 132774 149962
177535 175941 150645
175190 176774 163774
101991 108853 120377
110774 100774 121966
113471 156553 183803
112326 143774 179774
165240 87195 103948
155774 82773.8 109322
175253 177322 159366
169774 182774 165110
162472 84223 100879
155774 79545.8 91773.8
152226 187177 174283
152030 183774 183774
108675 87197 67563.8
116774 79597.8 67773.8
172233 91265.4 95893.8
177206 91773.8 82773.8
152037 183671 183337
151774 178546 195774
99351.4 132753 147220
98365.8 143774 154774
106733 104490 121235
112774 103774 132890
114066 154853 185451
117546 149774 191774
97383 125915 136119
103774 114774 135198
175019 176450 163166
173774 172774 172970
98661.4 140468 152508
93773.8 148774 148802
170664 87535 91165.8
169982 82773.8 80773.8
115287 80801.8 67017
121774 73541.8 62773.8
158003 80560.6 92976.2
158774 77773.8 82801.8
113097 145063 179997
113774 133774 175966
98549 141724 153369
103026 141774 161774
171366 85147 84262.2
177774 85101.8 73773.8
102622 141060 160370
108774 136774 167958
169848 82891 81573.8
164774 76321.8 75773.8
116502 151298 189877
121546 136774 191774
110297 101672 122235
119774 95773.8 126130
113463 138967 177820
119774 131590 183774
95240.2 146282 149913
90325.8 145774 139774
166817 171295 186951
165774 179866 177774
165151 76573.4 75765.8
161774 71589.8 70773.8
164708 178497 179082
160774 184774 171958
111817 104527 131547
117586 107774 145774
118419 145779 190598
124774 142774 199962
112487 104000 132487
122774 99773.8 137318
119376 101673 136531
124222 102774 143774
118701 96465 124224
126774 91501.8 123774
115507 98443.8 123468
118686 91773.8 116774
124352 92990.6 123909
127774 87593.8 116774
91543.4 144931 141531
89545.8 138774 132774
114820 107897 141634
112254 116774 151774
124173 102981 143416
129586 104774 150774
86738.6 164833 134809
89657.8 157774 142774
127799 88251.4 117132
131774 83773.8 109898
113024 114111 148732
105774 121774 147998
126489 90052.2 119707
137774 85673.8 120774
127578 104987 149485
128774 110774 159962
117064 108237 145469
120774 110774 153946
112299 116676 151369
109774 125774 159962
130581 85117 112068
140774 81773.8 111202
102071 160159 164110
96773.8 156774 155970
126047 91948.6 123814
134774 90529.8 129774
131416 84176.6 110549
135774 81525.8 99773.8
110733 122317 156697
115574 122774 164774
134118 82533 103868
128774 83481.8 96773.8
122573 100031 137065
131774 95773.8 137926
127611 109973 157667
122774 116214 163774
124719 114528 162896
124578 119774 172774
128694 110812 159929
131774 113506 166774
138514 220101 27068.6
143774 212006 33773.8
135721 215240 29892.6
126282 209774 32773.8
142774 213919 33223.4
146774 210062 42773.8
145494 211218 41957.8
146774 209782 50773.8
135761 211327 45949.4
128774 207194 53773.8
144064 206849 54541.8
151254 205774 54773.8
122701 204097 53307.4
126774 203774 60805.8
136651 208723 53717.4
135774 205222 61773.8
120234 201994 56357.8
114774 199842 56773.8
135215 205377 60729
132774 201774 67249.8
146630 203632 61043.4
143774 202010 68773.8
153456 199549 65653
159774 195246 66773.8
143705 202135 67415
137774 199774 73977.8
111267 198525 53096.2
108774 195774 58885.8
[...]
CELL_DATA 1581
SCALARS radius float
LOOKUP_TABLE default
2.122e-314
100
100
1.16386
0.113925
1.16262
0.810532
1.01267
0.806646
0.180084
0.218108
1.00893
0.0510446
0.217172
0.134093
0.802466
0.771396
0.827048
0.041604
0.771356
0.600157
0.623836
0.748127
0.453355
0.065124
0.747962
0.824407
0.121295
0.259423
0.421413
0.408381
0.166596
0.599137
0.103255
0.211115
0.590269
0.622256
0.122536
0.177806
0.821641
0.383999
0.218038
0.111287
0.746098
0.767377
0.467597
0.142409
0.163898
0.238942
0.57527
0.471155
0.514696
0.158468
0.237991
0.742708
0.154903
0.10721
0.449853
0.0533766
0.238051
0.455548
0.10616
0.378843
0.131045
0.255809
0.33511
0.218727
0.18445
0.200081
0.737836
0.727571
0.246632
0.676753
0.52163
0.0592028
0.675943
0.407447
0.25612
0.187258
0.503153
0.0606715
0.406998
0.0751103
0.572313
0.287626
0.406738
0.0462311
0.282059
0.479023
0.252173
0.133188
0.318284
0.63363
0.507555
0.0567659
0.633478
0.549169
0.445785
0.500458
0.217807
0.0737458
0.499923
0.136469
0.231834
0.481869
0.235457
0.0766778
0.675204
0.162182
0.565722
0.393897
0.149042
0.592626
0.463682
0.546783
0.129062
0.475128
0.138554
0.488736
0.391411
0.389248
0.364135
0.145099
0.398015
0.213883
0.371642
0.121615
0.503822
0.479709
0.361219
0.0719006
0.157328
0.474
0.157338
0.372831
0.193114
0.123694
0.442588
0.334691
0.270888
0.589676
0.145706
0.486474
0.11728
0.065756
0.48146
0.391643
0.359403
0.130231
0.384326
0.260492
0.454568
0.0753146
0.210724
0.19275
0.450049
0.134001
0.495842
0.318248
0.207343
0.0727626
0.363164
0.0639876
0.19037
0.0717463
0.350346
0.283796
0.210864
0.587485
0.131558
0.0928858
0.370899
0.274194
0.340442
0.346456
0.211326
0.0897998
0.43517
0.142384
0.478286
0.572146
0.189961
0.0659713
0.137497
0.151101
0.242304
0.155398
0.32313
0.208143
0.15922
0.0753105
0.38336
0.0956579
0.493267
0.449191
0.148798
0.319463
0.218271
0.579042
0.205011
0.120318
0.447164
0.352787
0.135476
0.0947292
0.357195
0.0677684
0.190291
0.263016
0.134251
0.0675388
0.571832
0.097945
0.469927
0.23749
0.267813
0.378218
0.331807
0.481365
0.173384
0.171704
0.31357
0.364228
0.179508
0.149942
0.191275
0.07262
0.16726
0.0883489
0.428942
0.339295
0.136182
0.460129
0.241704
0.40735
0.210806
0.171476
0.327186
0.153764
0.347433
0.324573
0.132714
0.342188
0.253408
0.0594629
0.397445
0.107042
0.335706
0.131865
0.280598
0.0840365
0.200192
0.118487
0.327915
0.568396
0.131841
0.408388
0.30831
0.0669807
0.363472
0.301519
0.176916
0.346826
0.184689
0.0861186
0.338834
0.432847
0.193855
0.190161
0.193491
0.378205
0.146005
0.16791
0.167549
0.170327
0.459496
0.173349
0.32298
0.271081
0.261652
0.078813
0.407408
0.241942
0.271581
0.233538
0.192567
0.0921598
0.30554
0.557791
0.216077
0.0932625
0.221762
0.151093
0.234402
0.0961343
0.307955
0.0621601
0.557533
0.402617
0.22348
0.363227
0.183474
0.0742972
0.345686
0.424372
0.167161
0.397516
0.168764
0.320381
0.20347
0.147163
0.173265
0.115616
0.43433
0.102807
0.40037
0.122561
0.294612
0.104236
0.556316
0.355632
0.333087
0.248264
0.236463
0.218293
0.227182
0.110324
0.240778
0.184095
0.284247
0.168125
0.304139
0.364606
0.206351
0.109863
0.25716
0.159587
0.391733
0.404955
0.472912
0.0961192
0.318758
0.154414
0.195565
0.10669
0.209444
0.291891
0.322154
0.340543
0.207834
0.247225
0.19806
0.154799
0.217221
0.111026
0.351988
0.115994
0.285653
0.195909
0.317392
0.192476
0.235874
0.189215
0.293176
0.294558
0.18974
0.400516
0.129265
0.1688
0.25449
0.129538
0.315015
0.30414
0.270483
0.120094
0.244667
0.260596
0.21853
0.407155
0.332282
0.187708
0.240473
0.069091
0.406491
0.39524
0.175706
0.3863
0.153886
0.394274
0.143537
0.373793
0.175653
0.258761
0.240638
0.185426
0.311798
0.0720833
0.394439
0.244167
0.202472
0.0871438
0.346229
0.174931
0.277844
0.348059
0.215882
0.169764
0.383665
0.0939486
0.17701
0.0831339
0.275341
0.307589
0.231476
0.246125
0.17112
0.0891741
0.167632
0.0993244
0.304097
0.179799
0.212286
0.203327
0.270148
0.0766164
0.17071
0.201858
0.354331
0.224273
0.306225
0.0658496
0.199494
1.16298
0.152484
0.0629495
0.10712
0.0750622
0.146163
0.0905422
0.133519
0.809627
0.121227
0.805389
0.13484
1.00839
0.118205
0.0399424
0.179427
1.00818
0.0862121
0.0709113
0.165212
0.803712
0.148218
0.0546892
0.13099
0.069051
0.143044
0.105424
0.20276
0.799948
0.169255
0.451922
0.0958541
0.0803956
0.198457
0.825281
0.126468
0.136765
0.13182
0.101765
0.149232
0.417421
0.128193
0.746922
0.120345
0.0654636
0.114573
0.188923
0.138666
0.114581
0.173677
0.406131
0.103837
0.0596854
0.105242
0.0633542
0.175083
0.0670799
0.162889
0.0912628
0.148276
0.457461
0.2069
0.0698358
0.153811
0.193906
0.145415
0.0616561
0.160936
0.0752264
0.141404
0.0991576
0.128056
0.676094
0.0967118
0.0396249
0.105375
0.114012
0.139012
0.0582074
0.205353
0.451874
0.21523
0.10052
0.207658
0.219207
0.129261
0.572744
0.135659
0.443695
0.154501
0.0660952
0.150784
0.186027
0.176118
0.0538733
0.206442
0.513848
0.184278
0.228308
0.116455
0.157623
0.168023
0.185384
0.134388
0.0748485
0.181897
0.137022
0.451377
0.57013
0.128796
0.0619861
0.184966
0.0794501
0.125888
0.12359
0.14819
0.501269
0.112548
0.438719
0.142694
0.156077
0.136192
0.238235
0.148572
0.0996764
0.211598
0.0980994
0.117652
0.0886888
0.178355
0.186472
0.295334
0.127489
0.153282
0.0673495
0.197504
0.214326
0.141088
0.736897
0.11525
0.216695
0.180295
0.233027
0.213897
0.0887503
0.234057
0.110583
0.172486
0.125172
0.201768
0.0645977
0.217321
0.118518
0.205419
0.074736
0.193871
0.461538
0.111235
0.0800821
0.189205
0.0796989
0.210143
0.0854775
0.230193
0.126709
0.183508
0.141229
0.210901
0.744947
0.102669
0.0683648
0.132768
0.255673
0.186716
0.400885
0.144109
0.158434
0.233531
0.0495144
0.143774
0.179193
0.19113
0.137433
0.193539
0.190863
0.149044
0.0549759
0.119963
0.561156
0.163221
0.351346
0.155497
0.0711579
0.202532
0.540067
0.181208
0.126852
0.156315
0.116268
0.36781
0.12623
0.16302
0.0943676
0.137292
0.122277
0.243538
0.123854
0.192358
0.151093
0.157412
0.0753326
0.203974
0.0650793
0.231841
0.482456
0.141438
0.0647997
0.128747
0.345232
0.204977
0.0584906
0.154596
0.359325
0.114542
0.0637292
0.126372
0.128319
0.217919
0.0739212
0.177011
0.0770083
0.135997
0.0792365
0.148203
0.0758404
0.144443
0.0737704
0.200705
0.0649647
0.131374
0.0620209
0.190184
0.0629872
0.131533
0.05766
0.236351
0.0592906
0.20331
0.139376
0.249264
0.0935229
0.239505
0.111314
0.432728
0.113465
0.175856
0.473201
0.151143
0.210391
0.170003
0.0671585
0.167971
0.160865
0.17269
0.140876
0.313946
0.107332
0.140944
0.0906548
0.132189
0.113286
0.158716
0.116891
0.189516
0.0759121
0.179688
0.110583
0.152707
0.121555
0.228577
0.488749
0.117471
0.0951552
0.204196
0.148556
0.230263
0.0777697
0.123138
0.079239
0.16142
0.108595
0.228448
0.113434
0.175775
0.0947323
0.21178
0.166007
0.196902
0.127587
0.181792
0.260749
0.190388
0.289988
0.18611
0.0837934
0.16328
0.116375
0.206635
0.0616325
0.15039
0.0973525
0.150816
0.161475
0.232204
0.397888
0.166331
0.447237
0.196258
0.158266
0.239652
0.340678
0.133865
0.0685087
0.125362
0.0987378
0.181089
0.164831
0.21315
0.32059
0.127568
0.0594442
0.163427
0.163684
0.234773
0.141999
0.318787
0.157877
0.175798
0.106126
0.181161
0.14305
0.131713
0.0651161
0.173926
0.0624955
0.142084
0.332993
0.191147
0.0697401
0.186981
0.227129
0.139716
0.172348
0.231448
0.0741573
0.159668
0.149436
0.19634
0.385324
0.177272
0.0717686
0.190519
0.089004
0.227761
0.203188
0.119343
0.137724
0.166692
0.437044
0.181493
0.157441
0.296122
0.144532
0.206423
0.0982213
0.181386
0.385426
0.147908
0.156287
0.166385
0.207082
0.223567
0.0854719
0.145139
0.253696
0.154701
0.163329
0.206961
0.116672
0.167644
0.131996
0.25957
0.0816083
0.203552
0.263677
0.166717
0.063269
0.165084
0.206074
0.207591
0.104928
0.16666
0.113206
0.194992
0.283891
0.173836
0.149132
0.160865
0.129385
0.184378
0.277164
0.281548
0.273773
0.171423
0.194247
0.198159
0.321645
0.154373
0.272585
0.145096
0.109104
0.178477
0.241118
0.202468
0.0982223
0.189656
0.113087
0.207929
0.0997922
0.180053
0.0815311
0.184028
0.0616418
0.124413
0.253955
0.206619
0.110916
0.233026
0.197527
0.1837
0.180881
0.21942
0.094724
0.184503
0.191251
0.182993
0.187131
0.194708
0.0809165
0.189933
0.119706
0.187431
0.0813148
0.145912
0.160055
0.161344
0.299264
0.15198
0.0970557
0.158453
0.374946
0.155546
0.19315
0.197501
0.248682
0.176465
0.139374
0.194463
0.0810551
0.192842
0.0937946
0.147961
0.159897
0.202589
0.203932
0.223966
0.120001
0.212181
0.111018
0.214476
0.341985
0.164974
0.213032
0.267064
0.137706
0.254256
1.16249
0.079837
1.01231
0.102977
0.0527867
0.0981294
0.0988607
0.0934209
0.0890026
0.12043
0.169456
0.0969206
0.0691718
0.112285
0.0910023
0.0964771
0.109145
0.147503
0.0895274
0.13557
0.211847
0.0902488
0.0855791
0.132003
0.100036
0.107621
0.0544585
0.133824
0.82627
0.116843
0.163582
0.15094
0.0653742
0.109579
0.0940341
0.116106
0.102111
0.107024
0.0808644
0.14277
0.0621895
0.170977
0.0628486
0.121067
0.0533201
0.0982791
0.082163
0.105919
0.10936
0.154533
0.0838295
0.114916
0.0765658
0.11163
0.159005
0.110437
0.148171
0.102244
0.821363
0.0825263
0.0926469
0.589507
0.745597
0.0942278
0.106006
0.127419
0.0966001
0.140759
0.588695
0.0945648
0.0929004
0.513685
0.110519
0.109595
0.233268
0.0927131
0.117941
0.131532
0.0852725
0.115472
0.0418849
0.103941
0.511654
0.0955803
0.0708761
0.123734
0.0568893
0.127884
0.512764
0.0899432
0.110051
0.331106
0.449933
0.0958337
0.172602
0.103718
0.11823
0.156187
0.325875
0.119194
0.12235
0.12537
0.0654783
0.150476
0.675534
0.082471
0.139252
0.152908
0.0643889
0.129269
0.127574
0.15797
0.104911
0.153104
0.0698046
0.11567
0.282472
0.107904
0.0866468
0.140216
0.145993
0.185298
0.0788674
0.11807
0.097911
0.125293
0.0904229
0.142597
0.404342
0.10574
0.0695278
0.143817
0.0501585
0.133886
0.0735928
0.141875
0.109613
0.171512
0.0794609
0.135229
0.102166
0.130318
0.506173
0.102138
0.0656868
0.120686
0.140747
0.164621
0.132576
0.161077
0.285301
0.136391
0.0583355
0.122446
0.106761
0.121098
0.0759752
0.11961
0.0655511
0.136204
0.0977162
0.203664
0.0668327
0.114476
0.389953
0.155424
0.0654249
0.153551
0.389358
0.0979094
0.0913327
0.181827
0.118528
0.129152
0.0635693
0.146032
0.115714
0.166675
0.38568
0.124465
0.185117
0.125233
0.0964683
0.50264
0.105228
0.147103
0.108761
0.19275
0.499083
0.13885
0.125635
0.170653
0.111002
0.143656
0.12058
0.126131
0.148969
0.182227
0.0994987
0.440905
0.0827164
0.140016
0.099195
0.439225
0.194428
0.124507
0.122023
0.127594
0.0894958
0.12515
0.108766
0.180436
0.102954
0.13757
0.139069
0.189536
0.138209
0.16184
0.494463
0.10047
0.0585773
0.145708
0.0879252
0.12906
0.0908619
0.132825
0.0952187
0.157081
0.436441
0.116994
0.471341
0.107561
0.329869
0.152737
0.124857
0.114632
0.0623209
0.129616
0.0581867
0.115599
0.108739
0.135153
0.176003
0.111941
0.115646
0.165151
0.123285
0.154283
0.290949
0.184825
0.430188
0.112369
0.0891395
0.135266
0.0927096
0.140378
0.0883578
0.152536
0.116069
0.168099
0.0777777
0.167262
0.218062
0.12788
0.445438
0.101034
0.491001
0.118077
0.117248
0.156412
0.255762
0.135324
0.101413
0.143504
0.124003
0.187648
0.146349
0.149057
0.113994
0.158071
0.0666796
0.125751
0.425361
0.125147
0.163338
0.196479
0.10783
0.220142
0.164188
0.173887
0.467168
0.12203
0.136461
0.127252
0.0640274
0.110539
0.104386
0.212023
0.570751
0.101902
0.110872
0.183673
0.123919
0.178956
0.151055
0.128998
0.108466
0.178861
0.103758
0.162814
0.181594
0.198113
0.259712
0.166014
0.17751
0.134437
0.108926
0.158327
0.0926029
0.164651
0.311047
0.13206
0.129876
0.135362
0.392554
0.132441
0.107431
0.155649
0.12444
0.148612
0.0735658
0.127821
0.271689
0.180815
0.150926
0.243712
0.145838
0.135158
0.130146
0.158634
0.126681
0.165148
0.173126
0.210191
0.163501
0.200228
0.112652
0.16569
0.104903
0.171246
0.155943
0.155728
0.159035
0.206899
0.101624
0.201954
0.103886
0.215825
0.280743
0.151015
0.31027
0.156363
0.137437
0.183974
0.106893
0.158478
0.0798888
0.162573
0.10611
0.16837
0.0961399
0.199734
0.165093
0.235069
0.178532
0.145749
0.387761
0.121868
0.150559
0.212357
0.168755
0.190556
0.470544
0.116493
1.11773
0.0985525
1.11605
1.10693
0.297082
0.484293
1.07512
0.161483
0.229101
1.11401
0.196494
0.268335
1.06901
0.0854574
0.483404
0.648958
0.981399
0.0868398
0.648439
0.141984
0.479286
0.109492
0.980945
0.112315
0.980454
0.112916
0.477188
0.138687
0.646318
0.424103
0.318729
0.105991
0.976622
0.156757
0.643229
0.107444
0.421792
0.108899
0.97617
0.0835043
0.64276
0.157217
0.414382
0.977038
0.214117
0.118063
0.641429
0.0873331
0.975937
0.181233
0.937261
0.358814
0.292237
0.0996366
0.356235
0.939514
0.464528
0.166302
0.173437
0.0901659
0.936983
0.166156
0.637691
0.204981
0.253783
0.116736
0.462057
0.0962885
0.936643
0.157568
0.305338
0.151822
0.346795
0.42744
0.273918
0.156112
0.634557
0.161251
0.289544
0.922538
0.331923
0.210175
0.409782
0.0946128
0.922206
0.854119
0.544245
0.174234
0.31508
0.216407
0.241811
0.188467
0.628966
0.26968
0.280605
0.118363
0.406463
0.100895
0.269277
0.16695
0.29861
0.105385
0.853583
0.0958537
0.628223
0.18827
0.271229
0.133317
0.541566
0.617015
0.235345
0.605049
0.237542
0.150394
0.252632
0.142252
0.852264
0.18228
0.393857
0.263104
0.350023
0.143972
0.850893
0.12775
0.539186
0.103167
0.228542
0.182893
0.599426
0.170269
0.848614
0.194944
0.328579
0.254587
0.58371
0.51192
0.28272
0.127004
0.509301
0.47605
0.795412
0.0906828
0.47495
0.264627
0.445817
0.160644
0.503916
0.119573
0.22698
0.420452
0.377118
0.115324
0.794603
0.104456
0.248585
0.206373
0.403179
0.232803
0.344866
0.148364
0.580497
0.201923
0.572236
0.17877
0.256546
0.158618
0.792491
0.146599
0.248689
0.197341
0.788391
0.125386
0.787332
0.242694
0.298963
0.188327
0.388988
0.264224
0.552806
0.124422
0.550697
0.141481
0.441016
0.227372
0.78096
0.107047
0.780289
0.288635
0.326521
0.172805
0.431988
0.346516
0.339143
0.219658
0.538792
0.633345
0.60462
0.185655
0.327754
0.101603
0.632473
0.182233
0.531752
0.193059
0.597986
0.507609
0.49625
0.161331
0.502118
0.193347
0.31675
0.13197
0.493119
0.156758
0.496973
0.187231
0.591804
0.18525
0.484246
0.200693
0.485814
0.143689
0.528231
0.152182
0.58843
0.194616
0.473532
0.221014
0.470061
0.246621
0.57362
0.173835
0.465591
0.17748
0.521467
0.441463
0.468311
0.1687
0.433093
0.260727
0.44164
0.345876
0.39436
0.280664
0.389578
0.229011
0.446337
0.242034
0.503473
0.195142
0.377742
0.315981
0.458003
1.1163
0.174739
0.102034
0.162274
0.132419
0.28804
0.153371
0.272748
1.07461
0.120872
0.163046
0.197386
0.114397
0.261217
0.135515
0.223444
0.238957
0.161079
0.253216
0.159457
0.140368
0.2032
0.152438
0.159325
1.0681
0.145755
