# vtk DataFile Version 3.0
Tree
ASCII
DATASET POLYDATA
POINTS 1582 float
162774 225274 273.8
162774 225274 10273.8
141774 225774 23773.8
135774 213218 31773.8
137934 217874 31553.8
132774 207914 54773.8
134322 210902 47807.8
148774 203774 62961.8
133610 209527 51012.2
114774 200774 53953.8
133025 208398 53645.4
125774 197774 71981.8
146949 203091 62259.8
158774 193190 77773.8
118001 201055 55512.2
104774 191774 62881.8
155227 196160 73119.8
169782 182774 68773.8
125771 199550 68401.8
111774 189974 81773.8
158544 193429 77732.6
168026 185774 91773.8
125773 198307 70907.8
136338 195774 92773.8
106665 192628 60737
92773.8 179978 61773.8
112613 191335 77774.6
98773.8 183890 82773.8
166551 183868 69791
174774 164774 67657.8
112025 190382 80574.2
118774 193774 100654
171515 170477 66600.6
172054 157774 54773.8
165181 188070 87561.4
179966 168774 87773.8
171217 180719 90028.6
179782 172774 104774
100551 184231 81424.2
84773.8 171970 82773.8
133919 196647 91096.6
139774 195998 111774
174073 164986 67859.4
179774 148774 72345.8
89735.8 174861 80761.4
80773.8 161966 71773.8
138748 196051 100529
153774 194014 106774
115857 193451 99574.6
117774 195994 115774
178235 151347 70214.6
179774 135890 65773.8
177351 173455 99753
183830 157774 105774
97305.8 181420 81225.4
86217.8 178774 97773.8
112221 191897 92832.2
101650 191774 109774
135612 196036 92270.6
149970 194774 90773.8
179312 149546 71706.2
183942 136774 79773.8
140477 196012 110697
146774 195998 125774
179407 137047 65439.4
179782 126774 60773.8
179923 166745 100541
183230 155774 93773.8
182173 161072 105344
183998 153774 118774
83029 163321 73920.6
79597.8 146774 69773.8
85041 166783 75972.6
77493.8 155774 84773.8
79757.8 159077 82133.4
75773.8 160774 100790
151963 193119 105956
168774 187906 112774
116167 195542 114614
114774 198014 134774
102701 190989 105479
88773.8 185934 111774
144885 196002 121251
135774 197218 133774
179601 128288 61053.4
179218 117774 53773.8
179543 130915 62369.4
175402 129774 46773.8
182445 156916 95881
183998 142774 95773.8
183213 154672 113139
183998 137774 119774
138507 196853 130017
144774 195998 144774
146207 195999 124417
159970 192774 125774
77287.8 160129 93700.2
78353.8 145774 104774
183629 145180 119038
183774 138774 134894
176644 130116 51452.6
183774 121774 39257.8
179053 172978 103267
177230 177774 116774
183763 154043 117083
183998 158774 139774
78173 156765 83981.8
79017.8 139774 83773.8
183719 141208 128869
181774 128346 130774
81351.4 148721 70333.4
85505.8 128774 65773.8
183214 138786 134168
179914 132774 144774
114310 196893 131737
108774 194774 151966
94622.6 187525 111072
87773.8 181774 126094
77975.8 154215 100386
79537.8 153774 113774
183606 138777 134676
183986 146774 142774
141601 196574 141569
137774 197978 158774
114867 196488 126601
98997.8 191774 137774
90598.2 183587 117548
82997.8 173774 119774
79069.4 153906 109757
81505.8 143774 114774
155841 193741 125367
163774 191186 141774
85091.4 133883 64433
88773.8 124226 55773.8
177777 176335 112722
181886 168774 123774
136031 197200 133719
130774 198002 142774
79315.4 142653 84669.8
82773.8 127574 89773.8
109429 193743 147317
102774 183326 157774
179665 133557 143886
171774 126774 158886
176817 177905 115503
171978 184774 124774
183603 145735 142547
181986 154774 156774
89214.2 181019 123269
87773.8 169774 137050
181941 131227 128987
178102 116774 122774
85894.2 129151 65477.4
89553.8 115774 67773.8
108970 194465 150571
113994 191774 164774
81127 145249 112999
83497.8 134774 111774
181824 129210 130238
173842 117774 141774
88321 174047 131813
84773.8 161774 129974
136250 198107 156608
130774 199522 168774
89188.6 177567 129550
91773.8 177774 141890
180667 135977 142289
177950 137774 156774
144451 195841 143699
154026 192774 148774
88591 124390 57424.6
92329.8 113774 51773.8
134169 198645 161231
141970 194774 172774
82949.4 143463 66421.8
85553.8 139774 53773.8
178274 117185 123316
175862 107774 119774
83738.6 129037 89985.4
88117.8 117774 94773.8
104063 183425 155048
99773.8 171774 159990
176237 121205 138313
171202 107774 132774
89140.2 118126 66313.8
93657.8 106774 61773.8
173205 127599 154540
166774 119590 156774
86401.8 164949 131429
87533.8 153774 135774
171663 127367 158054
165774 128002 168774
112885 190675 163181
115774 184774 175318
177498 137343 155537
174006 137774 164774
109255 194017 148554
121774 199998 156774
181693 152473 155058
176774 155774 171954
82786.6 137917 112141
89477.8 130774 123774
173430 182713 121993
177226 179774 137774
87953 119138 92681.4
92533.8 109774 92773.8
113460 186714 168772
109774 177134 172774
175941 108775 119766
171774 96773.8 112886
88068.2 118183 94146.2
92253.8 113774 103774
101061 175269 158507
93661.8 166774 150774
174323 116101 136208
165974 108774 142774
89659 116507 97804.6
87773.8 121774 108050
137317 198017 158124
148774 193774 158806
178644 153095 164663
175026 146774 171774
89429.8 116479 67335.8
95573.8 104774 77773.8
139836 195597 171337
141774 193186 184774
177305 155956 169797
175890 163774 174774
100160 172822 159545
102774 161774 165978
183381 159879 136288
181998 166774 146774
166892 128359 167419
162402 131774 179774
91267.8 114813 101505
97773.8 105990 100774
174126 102354 114887
175774 99773.8 106050
92984.6 108859 63559.4
97561.8 99773.8 65773.8
167670 120633 155751
160774 111598 153774
92170.6 111433 92049
98773.8 103562 87773.8
175466 181267 134493
171978 184774 144774
167043 119903 156467
158442 117774 165774
86399.8 134059 118423
87773.8 140774 130906
175885 108074 119771
167774 98281.8 123774
89141.8 131644 123327
94773.8 128774 133958
172037 97747 112704
167774 89773.8 106582
176933 155829 171307
170050 151774 184774
111451 179036 172633
112534 166774 181774
172115 152990 180734
167774 141774 181970
175755 160207 174199
169774 166774 188794
152525 193127 148524
161774 189386 156774
171987 166526 181285
169774 171970 183774
141330 195021 172343
152774 188774 169954
96606.6 106276 90592.2
103574 98773.8 94773.8
91957.8 114085 103093
101998 107774 118774
102844 164197 165612
108314 157774 175774
175067 99490.6 107137
173906 92773.8 96773.8
89377 131035 123640
93773.8 118774 120882
181797 166032 145203
177898 174774 155774
101483 101025 93519.4
107774 94277.8 86773.8
171285 109086 133561
165774 101090 131774
99081 109003 112586
106262 100774 113774
97109.4 101133 64313.8
105774 86773.8 60881.8
167761 98809.8 123125
160774 91773.8 124886
93811.8 130252 133079
97773.8 130774 142970
167945 91081.4 108261
160774 83737.8 106774
106937 158388 173030
109030 149774 175774
167825 90166.2 107086
165774 84257.8 95773.8
170255 152394 184533
163994 151774 197774
177399 174489 154357
172774 181250 159774
169783 169726 183717
161774 175774 192434
108283 157898 175714
112326 156774 183774
104107 103243 113417
108314 95773.8 104774
144763 193147 171626
149234 187774 179774
95872.2 103451 64087.8
99553.8 95773.8 52773.8
166389 86030.2 99167.4
155774 79573.8 97773.8
110103 156317 178879
113486 148774 182774
105887 96301.8 88797.4
103662 94773.8 76773.8
148585 189127 176782
155774 184006 178774
101972 107447 116953
110774 101662 124774
177748 174688 155349
175882 174774 165774
174481 94027.4 97628.2
175774 88773.8 82889.8
94485 129217 133694
99773.8 119114 133774
166088 84814.2 96148.6
165774 81773.8 86089.8
104975 89646.2 62773.4
116774 79597.8 67773.8
96148.6 132089 140089
98333.8 141774 152774
161377 174421 191031
153774 177882 196774
112072 150617 180607
113774 138774 179258
113234 82612.2 66273.8
117574 74773.8 59773.8
113061 149327 182124
117510 150774 191774
112346 144954 179078
109774 139774 173062
173413 179244 159278
165774 183826 169774
109237 103239 124078
116774 101774 134886
112270 157174 183041
117486 160774 190774
99481.4 121356 134868
104774 115574 137774
174800 88495 85798.2
173774 81773.8 76433.8
113359 148940 182579
118774 139590 188774
97328.6 137319 146939
92773.8 149774 145958
111498 102800 127320
119518 96773.8 126774
164854 81626.6 87540.2
162130 77773.8 79773.8
173211 82748.6 78518.6
167774 75773.8 73265.8
109908 140753 173274
105774 136774 162974
115629 102583 133947
118774 105574 142774
117159 141628 185930
120774 130774 183946
107676 138604 167712
101774 145498 161774
117027 98183 126013
121774 91773.8 119970
109814 140067 173125
115542 127774 170774
118289 140201 187921
123774 143774 199978
169777 171297 183757
163774 179774 181966
120373 141559 192502
125774 135774 196442
116824 103719 137301
111574 110774 141774
113149 108657 140432
115774 112774 151114
118889 104524 141121
125586 103774 147774
116431 102017 134604
129774 97705.8 139774
121512 93425 122057
131774 87545.8 119774
112111 110567 141822
108774 118218 147774
128305 89075.4 119313
132650 83773.8 110774
124224 104537 147250
128774 107774 156862
130985 87797.8 119121
138774 83773.8 116790
94511.4 147468 147691
93773.8 155774 151026
113823 131462 171479
110374 124774 159774
110521 127139 162120
104774 128774 153958
131294 84899 111266
132774 81733.8 102774
132243 84111.4 110921
142774 81533.8 107774
131537 87621.4 119578
132774 91773.8 130966
102795 162501 165868
98773.8 155774 159290
114915 128690 170210
118310 118774 163774
132934 82299 103947
136774 79665.8 94773.8
116556 111457 149281
121566 112774 156774
121421 112632 156670
126774 113774 164966
115354 128049 170605
124774 120358 173774
125168 113431 162477
133774 110362 163774
139086 220244 29219.8
144774 211894 35773.8
136422 214615 31707.8
126774 209886 36773.8
143378 213957 35404.2
145774 210530 45773.8
127052 210400 36564.6
120774 207846 39773.8
141399 208169 52666.6
148774 207838 52773.8
125990 206457 51185.4
119774 205826 47773.8
132849 208059 54435.4
137774 205774 61941.8
148227 203569 62751.4
154774 200774 61945.8
115742 200858 54421.4
112390 201774 45773.8
126610 201700 64049.8
117774 197842 65773.8
135630 205874 60427.4
134774 200774 69889.8
152381 199379 65850.2
159254 195774 65773.8
135031 202304 67051
141774 200774 71953.8
113201 197900 56399.4
105574 194774 51773.8
117549 195444 70946.2
112774 193882 69773.8
140791 200546 71622.2
147898 197774 77773.8
[...]
CELL_DATA 1581
SCALARS radius float
LOOKUP_TABLE default
2.122e-314
100
100
1.15437
0.154238
1.15289
0.988262
0.827204
0.97802
0.309679
0.218943
0.974349
0.102571
0.826079
0.163974
0.284061
0.791215
0.407337
0.544533
0.912573
0.0434014
0.791171
0.0584866
0.544308
0.0870066
0.260589
0.680635
0.761839
0.117391
0.399191
0.0607651
0.680473
0.250491
0.357461
0.789336
0.121
0.23016
0.781822
0.0709377
0.760347
0.15256
0.534165
0.0607493
0.352666
0.747289
0.157594
0.297739
0.500074
0.135088
0.622118
0.33204
0.193583
0.759841
0.332906
0.260255
0.750045
0.624234
0.412498
0.0598146
0.149432
0.0752906
0.173467
0.18072
0.490682
0.182576
0.312514
0.753358
0.223301
0.0855536
0.75299
0.120989
0.455075
0.457908
0.684399
0.452098
0.608898
0.188023
0.231167
0.0724989
0.61884
0.40506
0.141198
0.46479
0.254501
0.0984001
0.166789
0.177502
0.285527
0.085709
0.211111
0.361551
0.722725
0.257392
0.436831
0.0733649
0.252452
0.442354
0.180155
0.717876
0.164634
0.255595
0.187388
0.0699886
0.331872
0.0732021
0.360548
0.607804
0.106719
0.581769
0.557262
0.0817168
0.449865
0.486128
0.434484
0.0846828
0.60661
0.190935
0.390394
0.43649
0.150324
0.0482657
0.48597
0.262644
0.392804
0.607159
0.236144
0.1273
0.370358
0.0960425
0.434935
0.177702
0.218822
0.408604
0.233979
0.299144
0.197789
0.205158
0.203418
0.601402
0.147254
0.391172
0.537979
0.0738192
0.380576
0.0717388
0.297763
0.482134
0.118425
0.0943144
0.368308
0.343683
0.509752
0.0616975
0.408135
0.356971
0.140347
0.178595
0.424656
0.0686343
0.342768
0.266873
0.161201
0.379942
0.159603
0.285192
0.254222
0.392374
0.278545
0.131229
0.251236
0.148168
0.21221
0.1358
0.374069
0.432726
0.215544
0.499156
0.18886
0.117696
0.598153
0.0897678
0.536221
0.303405
0.225319
0.229243
0.371663
0.326191
0.267133
0.208962
0.202518
0.0803863
0.324555
0.339014
0.186867
0.0867361
0.268521
0.364061
0.226389
0.13538
0.470802
0.417825
0.136137
0.099159
0.276464
0.571678
0.288859
0.311754
0.16592
0.490282
0.186773
0.0637012
0.571415
0.530173
0.172778
0.277892
0.186339
0.557726
0.235675
0.0774013
0.153289
0.136468
0.461324
0.0727306
0.226776
0.330196
0.204421
0.35331
0.378155
0.527742
0.126842
0.137107
0.343317
0.224906
0.264524
0.550065
0.191763
0.396484
0.381503
0.102056
0.359275
0.159529
0.235762
0.0851687
0.280248
0.114434
0.24983
0.0749954
0.233204
0.147049
0.411663
0.0553396
0.18514
0.156158
0.404032
0.221852
0.371829
0.0720444
0.352308
0.156965
0.297882
0.305912
0.247173
0.156974
0.368914
0.188929
0.193379
0.148856
0.354016
0.0854214
0.328279
0.263206
0.155721
0.124552
0.547928
0.513103
0.228277
0.0864331
0.380018
0.0598451
0.153172
0.0880922
0.336754
0.114759
0.255723
0.156248
0.233169
0.202201
0.536577
0.100329
0.335707
0.094747
0.176468
0.27665
0.341155
0.341268
0.193135
0.132866
0.510116
0.0770016
0.339957
0.153692
0.276891
0.239376
0.260292
0.224222
0.32106
0.0472329
0.509981
0.112978
0.189686
0.254154
0.266656
0.338668
0.196012
0.265584
0.273935
0.50371
0.16907
0.180884
0.221073
0.145957
0.236973
0.170474
0.529291
0.0723714
0.23715
0.0989285
0.37777
0.0749132
0.274807
0.0923604
0.261807
0.182999
0.296106
0.325352
0.173978
0.133495
0.277294
0.35388
0.437057
0.209979
0.231704
0.312581
0.239719
0.131918
0.433014
0.117607
0.235442
0.09657
0.526058
0.0866669
0.16111
0.167817
0.252126
0.286213
0.192997
0.0604404
0.311826
0.160993
0.311643
0.420306
0.414721
0.143055
0.216767
0.145118
0.273194
0.208038
0.412577
0.410109
0.174068
0.278538
0.205754
0.149743
0.178067
0.401421
0.160143
0.0647277
0.412045
0.25836
0.163422
0.0875498
0.219682
0.176586
0.227271
0.357018
0.28631
0.184225
0.339855
0.107548
0.28116
0.0728002
0.169716
0.111871
0.398503
0.0865425
0.177625
0.286189
0.33252
0.190934
0.232081
0.238673
0.214318
0.203312
0.226112
0.338282
0.314968
0.141596
0.329802
0.207202
0.303191
0.0941508
0.200509
0.0747044
0.236208
0.162409
0.196711
0.269331
0.227078
0.132706
0.222068
0.277117
0.261942
0.0819512
0.274707
0.0770029
0.267216
0.183895
0.243915
1.15381
0.130552
0.0631459
0.150626
0.0818464
0.118804
0.0691818
0.128959
0.0902471
0.826846
0.115923
0.304167
0.0430471
0.218387
0.0529761
0.0976263
0.0641733
0.16063
0.143191
0.973317
0.0745531
0.215451
0.825679
0.0935295
0.201711
0.121508
0.263783
0.165906
0.0846069
0.91233
0.119151
0.186774
0.538281
0.0909873
0.0916305
0.156011
0.100026
0.790638
0.911572
0.123656
0.539146
0.165637
0.0783166
0.104384
0.788415
0.119815
0.130675
0.24914
0.679278
0.0959207
0.113747
0.14538
0.0597793
0.141929
0.394494
0.111714
0.096475
0.244222
0.0882523
0.240318
0.100458
0.113221
0.151702
0.219851
0.241687
0.116954
0.533036
0.0987982
0.353266
0.116706
0.0821976
0.21464
0.0849406
0.142249
0.0475609
0.110351
0.105017
0.209774
0.201322
0.135115
0.0499193
0.179441
0.266841
0.194816
0.14278
0.17379
0.105594
0.159681
0.0670549
0.200667
0.178071
0.117152
0.070745
0.191655
0.151862
0.19581
0.107375
0.752261
0.179399
0.228011
0.0670036
0.113709
0.0993368
0.192201
0.0876936
0.172169
0.0978327
0.136903
0.118768
0.175709
0.142092
0.160971
0.15344
0.12929
0.0663101
0.137105
0.0710573
0.192639
0.0619067
0.180172
0.619172
0.138844
0.450762
0.138465
0.0377164
0.204732
0.682676
0.134175
0.0712378
0.184551
0.143096
0.161583
0.132509
0.16672
0.0890918
0.142693
0.118904
0.220165
0.151935
0.171839
0.0790892
0.124307
0.107892
0.166224
0.428586
0.166685
0.0743562
0.17583
0.720751
0.145575
0.109227
0.210812
0.350456
0.139823
0.100963
0.173873
0.0639717
0.12734
0.60433
0.156427
0.161646
0.231919
0.601829
0.162156
0.0968628
0.204083
0.121964
0.187606
0.114773
0.132302
0.11465
0.171825
0.0858587
0.153061
0.063341
0.161448
0.170266
0.196074
0.066321
0.126495
0.0911367
0.132536
0.0694669
0.174091
0.0920104
0.137822
0.063539
0.132398
0.599591
0.134323
0.0669098
0.113243
0.381499
0.169672
0.375305
0.187917
0.340926
0.217825
0.599668
0.123321
0.50801
0.110613
0.110759
0.222819
0.0759722
0.214699
0.389107
0.119231
0.130955
0.163742
0.104133
0.127823
0.107781
0.158799
0.0767287
0.173744
0.140745
0.181391
0.0791323
0.211055
0.477068
0.151769
0.171539
0.181864
0.0605459
0.112093
0.108114
0.112211
0.0677074
0.209888
0.361441
0.172399
0.185632
0.153505
0.326693
0.159996
0.142895
0.151391
0.0900281
0.178287
0.126029
0.204398
0.474504
0.120296
0.106126
0.156762
0.0486389
0.187778
0.1341
0.141502
0.0622258
0.184538
0.254538
0.170636
0.140417
0.239056
0.106801
0.175473
0.109794
0.596917
0.0787315
0.176806
0.0867849
0.220943
0.0884988
0.204506
0.0788763
0.205146
0.465271
0.129667
0.0731783
0.147749
0.257589
0.159257
0.13727
0.181373
0.200721
0.177312
0.109445
0.211602
0.595274
0.120544
0.103102
0.159554
0.0778973
0.149508
0.131818
0.189985
0.0572297
0.122834
0.0795302
0.221541
0.0760773
0.224526
0.0849508
0.150754
0.310329
0.131271
0.163646
0.171212
0.137063
0.157341
0.15293
0.250848
0.137515
0.176372
0.135266
0.166396
0.0641675
0.174465
0.169447
0.166424
0.101654
0.141239
0.0844155
0.148364
0.338752
0.116789
0.0610107
0.149623
0.39339
0.171855
0.156301
0.206957
0.0510483
0.121626
0.126134
0.131174
0.148449
0.231421
0.130448
0.289299
0.184261
0.23334
0.182301
0.185152
0.0526765
0.16054
0.0599544
0.220382
0.202469
0.251524
0.36258
0.136483
0.315321
0.1898
0.073901
0.149962
0.105833
0.211927
0.545983
0.120407
0.150506
0.207889
0.139796
0.327423
0.161016
0.205597
0.114735
0.155439
0.291852
0.15562
0.103302
0.243798
0.159094
0.307472
0.133102
0.229784
0.101034
0.1697
0.244843
0.143539
0.0589473
0.168092
0.129653
0.218958
0.110474
0.168453
0.155462
0.145303
0.190508
0.333606
0.170976
0.222592
0.353148
0.214501
0.26789
0.255337
0.287246
0.175086
0.124511
0.199491
0.13023
0.214897
0.181634
0.244207
0.132802
0.192588
0.0913677
0.158564
0.140056
0.164568
0.179833
0.195672
0.155231
0.155918
0.0739369
0.166237
0.117714
0.227059
0.0847437
0.265033
0.235813
0.16906
0.129666
0.182915
0.12563
0.218674
0.0865073
0.187021
0.208335
0.167898
0.159116
0.171156
0.27128
0.217597
0.409743
0.136409
0.122567
0.21447
0.076118
0.157721
0.165881
0.16065
0.152007
0.192106
0.155786
0.210071
0.167534
0.250333
0.268981
0.140357
0.151124
0.18993
0.0883258
0.150633
0.153236
0.201167
0.391936
0.145458
0.102022
0.218965
0.0910957
0.227305
0.157537
0.198612
0.0990618
0.257132
0.198872
0.209046
0.188676
0.214944
0.154136
0.183532
0.101955
0.200627
0.15092
0.161013
0.0743741
0.15554
0.236858
0.244312
0.166945
0.214938
0.145387
0.216202
0.17692
0.183427
0.193452
0.227926
0.105492
0.220129
0.0753936
1.15279
0.13528
0.0980183
1.1526
0.0902281
0.0839875
0.0988311
0.826606
0.0789629
0.115974
0.137238
0.301217
0.0932502
0.0866307
0.131728
0.973097
0.0854641
0.0569454
0.114648
0.0854353
0.118456
0.0621519
0.115826
0.0840429
0.125806
0.402546
0.116969
0.405812
0.0911184
0.0962402
0.0999798
0.109059
0.116025
0.082471
0.154705
0.162153
0.131075
0.0827498
0.147829
0.0676831
0.108866
0.397458
0.0937873
0.11494
0.760966
0.0716074
0.110599
0.0749816
0.103133
0.679915
0.0918295
0.0528063
0.11755
0.760553
0.0895243
0.218585
0.120473
0.781032
0.113081
0.780571
0.0944672
0.0664328
0.113324
0.749618
0.0895841
0.203133
0.114641
0.0710137
0.128232
0.0647127
0.105523
0.218204
0.151681
0.167534
0.165449
0.746854
0.0899787
0.113305
0.134981
0.325564
0.126922
0.0795193
0.115525
0.498721
0.100422
0.62149
0.0899557
0.0560125
0.108545
0.0863898
0.121972
0.10832
0.156493
0.4107
0.0970245
0.222465
0.0945083
0.185543
0.110524
0.488948
0.107659
0.10482
0.118484
0.0587365
0.125116
0.147079
0.126787
0.306773
0.118198
0.107428
0.137378
0.215719
0.103107
0.125846
0.129623
0.127228
0.137059
0.751708
0.0978866
0.0732902
0.146023
0.0727635
0.145567
0.0882473
0.138375
0.115634
0.145575
0.110187
0.155173
0.0943541
0.121975
0.790283
0.0873187
0.231592
0.0907342
0.0570053
0.13369
0.0533542
0.102074
0.129361
0.148446
0.357724
0.103005
0.143615
0.18573
0.058089
0.113634
0.605728
0.0990431
0.0617547
0.144795
0.106851
0.114818
0.135723
0.144241
0.114871
0.169746
0.0804942
0.165063
0.17653
0.144206
0.0779401
0.121274
0.147631
0.118571
0.1011
0.177259
0.0555246
0.114208
0.119215
0.157073
0.120548
0.112957
0.0589834
0.12713
0.102908
0.110076
0.422588
0.103649
0.105692
0.144665
0.127767
0.147216
0.0621932
0.136151
0.154034
0.13226
0.0788345
0.157409
0.484504
0.101172
0.340188
0.096643
0.0835918
0.124714
0.271504
0.116909
0.537058
0.0927704
0.108561
0.405558
0.280653
0.108628
0.0624703
0.117728
0.111939
0.135677
0.259279
0.11639
0.0879626
0.182261
0.0727643
0.134774
0.136751
0.134091
0.0812228
0.125723
0.073515
0.185144
0.398718
0.149161
0.285976
0.14443
0.377438
0.110586
0.361999
0.157428
0.109288
0.140785
0.100453
0.132097
0.0888646
0.133575
0.065386
0.130092
0.122766
0.154343
0.317969
0.126814
0.101218
0.14662
0.257954
0.123819
0.124994
0.163009
0.468604
0.113304
0.0969215
0.150679
0.102627
0.134164
0.0950972
0.144889
0.354482
0.138822
0.137908
0.144931
0.240872
0.123478
0.2274
0.11
0.146351
0.172929
0.0912554
0.166828
0.209141
0.135985
0.0711367
0.138432
0.192038
0.155928
0.122886
0.157853
0.206114
0.119848
0.282845
0.113814
0.113766
0.19275
0.086171
0.158336
0.117898
0.154272
0.171242
0.152131
0.143112
0.16032
0.0995603
0.152989
0.231495
0.150056
0.188849
0.121743
0.16163
0.166812
0.139709
0.160448
0.219262
0.102013
0.250214
0.141686
0.0829402
0.133149
0.134024
0.153927
0.0688208
0.181927
0.104037
0.17875
0.234317
0.130762
0.131925
0.150594
0.360754
0.164581
0.179557
0.176835
0.0905079
0.163647
0.0914119
0.14973
0.144492
0.18664
0.112531
0.153976
0.103109
0.149804
0.167357
0.136515
0.126123
0.188373
0.106484
0.162894
0.183343
0.187024
0.535121
0.107845
0.183818
0.213278
0.0651977
0.149678
0.0805396
0.178513
0.105901
0.174503
0.0949434
0.148606
0.148038
0.193572
0.149648
0.18518
0.155394
0.259508
0.115285
0.168853
0.161394
0.236764
0.317779
0.144405
0.163627
0.207169
0.0765126
0.182654
0.12435
0.208822
0.172944
0.177917
0.107563
0.178314
0.206667
0.213921
0.52714
0.121641
0.211682
0.171889
0.312899
0.186562
0.429504
0.125107
0.18062
0.248952
0.0803277
0.195051
0.278915
0.162164
0.185169
0.208625
0.0997157
0.176538
0.0943744
0.157304
1.13859
0.089042
1.13841
0.133598
1.13572
1.13173
0.215938
1.13434
0.143676
0.155443
1.13692
1.129
0.218519
0.250719
1.12414
0.116474
0.242044
0.696783
1.02671
0.075517
0.696488
0.295805
0.678227
0.101793
1.02637
0.0966763
0.292322
0.110291
0.677254
0.158274
0.216978
0.992289
0.470534
0.0875844
0.992062
0.141856
0.280733
0.162966
0.674094
0.152324
0.671491
0.418554
0.313635
0.144413
0.669257
0.0863688
0.991843
0.635998
0.895646
0.211981
0.232693
0.382108
0.259799
0.0944866
0.635303
0.247039
0.250797
0.0851815
0.380692
0.205674
0.359526
0.143896
0.894407
0.0890458
0.668731
0.169484
0.233107
0.891216
0.19687
0.111618
0.634152
0.141834
0.631778
0.0644294
0.245569
0.170957
0.220896
0.125255
0.354385
0.185769
0.626378
0.138479
0.666746
0.14632
0.226865
0.107761
0.89069
0.108104
0.625303
0.613752
0.236932
0.247757
0.599988
0.162008
0.222101
0.157367
0.88905
0.244239
0.310507
0.146079
0.216753
0.119529
0.665463
0.649482
0.274687
0.202097
0.642892
0.186707
0.286143
0.0930892
0.189672
0.131974
0.888079
0.117856
0.598468
0.0992727
0.642102
0.16831
0.593998
0.0911355
0.271302
0.205558
0.635002
0.323095
0.873589
0.103241
0.319542
0.15479
0.590473
0.198824
0.229636
0.204377
0.252249
0.15082
0.872088
0.19243
0.583581
0.56039
0.283412
0.108463
0.633945
0.190806
0.62813
0.157697
0.556196
0.208434
0.868101
0.597238
0.326472
0.23306
0.585166
0.134169
0.867032
0.822436
0.457071
0.115601
0.321567
0.144017
0.270431
0.290784
0.200334
0.143454
0.820979
0.175816
0.495241
0.50252
0.356117
0.105285
0.455201
0.294451
0.457783
0.15011
0.819303
0.14786
0.582002
0.23606
0.568758
0.223838
0.323794
0.313995
0.39867
0.195935
0.81555
0.11684
0.81475
0.361256
0.365406
0.337119
0.795038
0.111598
0.309224
0.174199
0.351702
0.193582
0.296241
0.152801
0.565058
0.183086
0.318061
0.122189
0.394806
0.250126
0.358021
0.220172
0.266347
0.134098
0.793765
0.233427
0.268963
0.216195
0.788382
0.214726
0.554527
0.724826
0.477996
0.142616
0.722981
0.210719
0.331818
0.427835
0.669128
0.112091
0.475933
0.202562
0.463373
0.132713
0.423535
0.216677
0.543272
0.169997
0.665451
0.195972
0.40906
0.181459
0.453905
0.172348
0.661575
0.142474
0.539986
0.528654
0.521482
0.274182
0.502828
0.197866
0.511808
0.208764
0.43868
0.242995
0.37821
0.227705
0.41917
0.222116
0.527157
0.440467
0.364959
0.218304
0.48872
0.241323
0.412845
0.29273
0.495166
0.328881
0.432954
1.13789
0.126701
1.13634
0.131177
1.13511
0.133484
1.12828
0.14015
0.141561
0.193385
0.0882592
0.187052
0.152969
0.189962
0.0953891
0.181581
