# vtk DataFile Version 3.0
Tree
ASCII
DATASET POLYDATA
POINTS 1582 float
162774 225274 273.8
162774 225274 10273.8
141774 225774 23773.8
135774 212774 31961.8
137934 217683 31634.6
132774 207914 54773.8
134322 210845 47832.2
148774 203774 62961.8
133610 209497 51025.4
114774 200774 53953.8
133025 208389 53649.4
126774 197966 71773.8
146949 203073 62267.8
158774 193190 77773.8
118001 201045 55516.6
104774 191774 62881.8
155227 196155 73121.8
169774 183026 69773.8
109800 195297 60083
111774 189974 81773.8
158721 193287 77733.4
169290 184774 91773.8
130361 201327 68370.2
136774 195914 92773.8
106059 192201 61075.4
92773.8 179978 61773.8
111182 191571 75266.6
99773.8 183994 83773.8
166546 184015 70381.4
174774 164774 67657.8
111596 190453 79821.8
118774 193774 100654
171513 170528 66807.4
172054 157774 54773.8
166245 186054 85176.6
180002 167774 87773.8
171854 179259 88621.4
179782 172774 104774
101667 184962 80656.2
84773.8 171970 82773.8
136075 197236 92237
139774 195998 111774
174072 165008 67948.6
179774 148774 72345.8
88775 174077 80662.2
80773.8 161966 71773.8
112579 191284 88379.8
104774 189986 100774
116821 193411 99456.6
116774 195982 115774
136564 196311 92612.6
155774 193970 99773.8
177537 152776 69606.6
178050 136774 63773.8
178084 169055 87862.6
182018 154774 86773.8
177597 172804 99820.6
183998 156774 109774
85974.2 172602 82140.2
79773.8 171774 97501.8
106170 189675 95427.4
90773.8 183774 100654
137515 196333 108039
130774 196002 122774
116796 194799 108268
104774 193994 115774
139841 196195 110690
149774 195998 119774
152026 193665 101324
163774 191182 109774
177732 146695 67390.2
183998 131774 79773.8
177957 137633 63490.2
178002 123774 54773.8
146794 196057 117049
143774 195998 135774
116363 195756 114926
113774 198002 132774
181246 163667 108294
183998 156774 129774
182594 158609 110279
183998 144774 118774
83294.2 163938 75507.8
78773.8 145774 76225.8
80129.8 151223 76010.6
83501.8 139774 62773.8
181233 156950 88187.8
183998 142774 94773.8
177989 127931 57388.6
177774 127774 43257.8
81079 155037 75859.8
76773.8 147578 91773.8
78389.4 151196 88443.8
77549.8 154774 107774
183619 147809 118440
183998 139774 132774
179127 172783 103288
175218 181774 116774
95322.6 185575 101081
84773.8 181886 116774
78227.8 155348 103981
80773.8 165774 117958
78302.2 153438 96833.8
79449.8 144774 104774
183884 145685 118674
183914 130774 118774
148880 196015 118956
163774 191230 126774
113141 196943 129495
104258 194774 143774
110831 196754 135941
113774 199774 147998
111714 197660 139558
127042 199774 143774
124714 198783 144175
139974 196774 154774
183310 140123 129464
179818 126774 136774
178193 175069 109377
179994 171774 120774
183791 139879 131781
182774 151598 148774
181983 135051 132241
179774 135774 149894
83170.6 140485 66067.8
87637.8 122774 60773.8
79963.8 147029 76595.4
81557.8 131774 79773.8
80465.4 139974 79413
79561.8 134774 88773.8
106760 193901 115751
95773.8 191774 130090
77753.4 154946 106636
81449.8 148774 116774
157229 193365 125652
162774 191782 142774
88041.8 182043 114917
87773.8 175894 133774
183346 133120 119307
179914 118774 122774
107682 194524 141948
104774 185774 159266
86782.6 176292 123327
83773.8 166774 128790
179355 134121 144819
171258 125774 157774
106112 189799 151299
114774 193774 163322
86373.4 129089 61086.6
89773.8 123602 49773.8
161111 192257 137637
153774 193942 146774
79984.2 145719 103558
82997.8 135774 111774
131733 197859 149051
130774 199870 166774
80616.2 135470 85308.6
84317.8 123774 92773.8
175847 180103 116317
173978 182774 127774
87258.6 124668 60867.8
88361.8 115774 73773.8
131062 199267 161457
141086 195774 169774
83764.2 139913 63150.2
86773.8 137774 51581.8
182146 163104 123086
182014 165774 132774
87523.8 123342 60801.8
92325.8 109774 60773.8
105389 187625 155601
98153.8 174774 155774
179320 127609 136390
172086 116774 142774
88066.2 175565 132498
91773.8 172774 144806
180261 120967 121305
175774 106774 118970
182259 148737 147821
179774 154774 164790
85040.2 167804 128293
87017.8 155774 135774
174256 120024 140859
171422 109774 134774
89733 117101 60789
93601.8 110774 47773.8
112175 192581 159715
111774 184774 170866
172313 128812 156428
165774 127086 167774
131371 198619 155750
122774 199962 159774
179140 135631 148995
176774 140774 161958
173665 182973 127264
171258 185774 135774
84807.8 124717 90665
90297.8 113774 93773.8
138336 196577 168953
140774 194774 179954
88211.4 117932 92592.6
91545.8 111774 85773.8
83107.4 137479 111235
89593.8 128774 123774
182309 164633 131418
183866 162774 141774
84464.6 124057 92141
87549.8 121774 105774
100325 178629 155722
101662 166774 164774
176090 108516 118013
171774 96773.8 112886
91395.8 112141 85981.4
95773.8 104286 76773.8
112462 185063 169512
113774 176886 178774
172737 117749 142199
165774 114342 151774
89671.8 115021 93419.4
94113.8 111774 104774
172558 184261 131179
177774 178774 140810
176573 138965 159769
170774 137774 171326
92372.2 110212 61057.8
97657.8 98773.8 62773.8
155615 193213 145987
152774 191990 158774
171165 110254 134761
167266 99773.8 127774
179611 152724 162026
173814 151774 177774
179725 154159 163961
175774 166798 174774
112619 179127 174371
109554 167774 175774
166814 115602 150776
159774 116774 163114
92005.4 112759 97374.6
97773.8 105122 99773.8
183028 164147 139269
181774 167938 149774
166795 128208 166671
160458 131774 181774
87647.8 131385 120012
89025.8 135774 129774
174450 104054 116065
176526 101774 105774
94197.4 109857 98286.2
98773.8 103574 89773.8
168695 102287 128050
167914 96773.8 120774
88009.4 122016 105258
90773.8 120774 113958
175903 102458 108861
172094 94773.8 104774
88391.8 133755 125283
95005.8 127774 133774
172059 138795 169415
168774 142774 179962
101747 167207 162437
103494 154774 166774
171656 97559.4 113309
165774 88345.8 109774
176001 163522 173691
169774 167774 187890
175374 181298 136379
171974 184774 148774
174074 152485 176794
169774 153498 187774
94243.8 111559 103724
100314 107774 115774
153403 191761 157807
151774 189774 169934
97401 105459 92327.4
104774 97573.8 93773.8
91021.8 172127 142178
93553.8 162774 149774
168148 98427.8 122957
160774 89773.8 120886
97679 100535 63344.6
103774 91989.8 66773.8
172994 183731 145055
176774 176774 153954
100793 101832 92993
104390 95773.8 83773.8
110412 169019 175857
109774 154774 179074
176251 101617 106195
177186 97773.8 95773.8
98007.4 109212 111195
106290 99773.8 110774
167695 100528 127857
159774 94773.8 129378
167484 90790.6 109331
163286 82773.8 97773.8
100483 96603.8 64922.2
104294 87773.8 56773.8
176048 98166.6 99975
171930 88773.8 93773.8
90853 120991 113226
95005.8 119774 123774
93251 130427 132482
99005.8 131774 145774
170126 152983 186209
163994 151774 197774
171626 184609 147997
165774 187394 156774
170335 167834 184600
161774 176402 191774
103540 92454.6 65985.8
110334 83773.8 65773.8
100366 107863 114785
107774 103998 122774
175640 178861 151284
172046 180774 160774
97664.2 99302.2 62945
99553.8 95773.8 52773.8
165889 87744.2 104939
155774 81561.8 105774
110487 155393 178351
111774 144774 179250
103704 92129.4 66537.4
110774 89453.8 76773.8
110465 159481 177603
114774 154774 187970
105551 105157 120377
111526 97773.8 117774
173987 179741 155649
176774 173290 163774
107107 104346 122055
110774 105574 131774
152249 189470 168597
152030 183774 183774
95190.6 119421 122355
101598 116774 133774
97279.4 131370 141786
95773.8 143498 149774
173824 93094.6 96626.2
177206 91773.8 82773.8
110355 84591.8 65281.8
118174 76773.8 63773.8
163697 83695.8 98168.6
161202 79773.8 86773.8
111388 147959 178980
115666 143774 186774
97000.6 139012 148031
100774 141774 157298
171868 180832 160240
165926 183774 169774
107574 104102 122558
116774 98369.8 127774
115187 155255 187412
119554 151774 195774
175479 90976.2 86922.2
173322 82773.8 77773.8
111826 145253 178771
113774 134774 176962
112065 141237 177189
109774 136774 170966
115428 143433 185120
119706 137774 189774
98434.6 140061 151553
103774 132774 156970
162720 80261.8 87900.2
163774 77033.8 77773.8
110904 104990 130425
118774 103774 140886
117738 140377 187633
119774 131774 183962
87478.6 156421 135378
90357.8 147774 140774
164329 77533 79527.8
169774 74373.8 70773.8
168011 182044 167837
165966 178774 179774
113658 99911.4 124579
122774 91773.8 120974
89778.6 148989 139193
91773.8 139774 139890
119115 138555 189131
124774 142214 199774
103805 155174 166048
105774 144774 168866
110106 137362 171224
108342 133774 164774
115783 104236 136911
113774 112214 146774
117159 104023 138739
124774 98773.8 137882
118790 103901 140642
124774 103774 146966
121257 93180.6 120391
127774 87497.8 114774
122979 103812 145069
130774 99589.8 143774
113476 110902 144111
107774 118230 146774
92794.2 165580 147495
91589.8 154774 145774
124235 103785 146397
128774 107774 156862
125819 89202.6 116459
136746 85773.8 120774
130845 87625.4 118444
137774 83017.8 111774
109278 117167 147035
107518 124774 153774
125960 105301 150373
121102 111774 155774
127187 88009.4 115279
128754 83773.8 106774
93677.8 163000 149659
96773.8 155774 155954
129337 88098.6 117849
134390 90773.8 129774
108187 121883 151213
114534 121774 162774
136682 83891 111922
143774 79553.8 102774
129034 84604.2 107810
133774 81537.8 97773.8
132379 90548.6 127114
129774 94325.8 133774
133390 81779.8 98222.6
136466 79773.8 90773.8
113974 121243 160240
122774 117774 166970
119834 119548 165679
123774 121774 174578
122299 118121 166069
131774 112774 165970
139648 219072 30091.8
142774 211998 35773.8
136422 214247 31863.8
127774 209978 36773.8
137918 215010 37847.4
144790 211774 44773.8
128169 210432 36715.4
121774 207942 40773.8
141399 208137 52680.2
148774 207838 52773.8
123081 208311 40522.6
118774 205774 46805.8
132849 208056 54436.6
138774 205946 61773.8
146921 207234 53301
153974 202774 56773.8
115742 200855 54422.6
112774 201774 46881.8
123852 203825 55243.8
120774 199774 64797.8
149432 200997 65523.8
157990 196774 63773.8
137594 205931 61087.8
141774 201774 71025.8
113559 198317 56870.6
106774 195930 53773.8
[...]
CELL_DATA 1581
SCALARS radius float
LOOKUP_TABLE default
2.122e-314
100
100
1.15782
0.182134
1.15611
0.991388
0.828401
0.525797
0.93941
0.522891
0.133829
0.0666415
0.826982
0.130243
0.936453
0.789291
0.403188
0.153739
0.933896
0.0333934
0.789271
0.139178
0.519584
0.0741653
0.147756
0.68525
0.789445
0.0814349
0.394056
0.683786
0.1272
0.358206
0.24786
0.0956861
0.785704
0.287655
0.772635
0.0808598
0.784821
0.309713
0.473091
0.0613166
0.357606
0.258571
0.772362
0.617621
0.438157
0.61151
0.158982
0.0504973
0.309265
0.1613
0.346315
0.078512
0.268904
0.397462
0.734174
0.163604
0.234582
0.17297
0.427208
0.443856
0.260451
0.595635
0.258884
0.441296
0.114578
0.0983674
0.274883
0.314632
0.207653
0.0748931
0.313211
0.405939
0.267055
0.0611068
0.59542
0.712516
0.304761
0.0769841
0.712216
0.769801
0.16594
0.634602
0.461715
0.198131
0.217807
0.181598
0.282869
0.707401
0.467512
0.459248
0.159477
0.462475
0.636784
0.06885
0.396772
0.133311
0.420672
0.234726
0.178342
0.264978
0.42773
0.0628569
0.462087
0.0706417
0.405224
0.591522
0.122911
0.356984
0.541117
0.345506
0.161966
0.145487
0.336683
0.455924
0.546747
0.116376
0.391327
0.066626
0.45545
0.441449
0.426189
0.198441
0.445003
0.0719081
0.634294
0.107398
0.633266
0.0803835
0.252048
0.0755175
0.232091
0.39542
0.148813
0.09411
0.401509
0.0836635
0.456937
0.0927515
0.540207
0.274059
0.34921
0.305583
0.357661
0.325537
0.497516
0.426373
0.156915
0.375523
0.173713
0.0773357
0.426886
0.133851
0.319472
0.630337
0.151939
0.112687
0.388187
0.402364
0.231276
0.126922
0.303188
0.0568603
0.196872
0.272313
0.153153
0.0614446
0.401886
0.301266
0.192696
0.070481
0.435738
0.339942
0.131586
0.089106
0.453357
0.44699
0.13048
0.172923
0.248866
0.282593
0.391845
0.390084
0.177078
0.191857
0.480603
0.340635
0.145534
0.310428
0.139102
0.0752649
0.304054
0.382655
0.11276
0.610752
0.273027
0.177744
0.227764
0.205088
0.602944
0.133765
0.419639
0.0857209
0.269451
0.0616092
0.271977
0.151249
0.287982
0.0878196
0.44716
0.132035
0.18493
0.0825127
0.477441
0.0807995
0.280374
0.601706
0.110446
0.104887
0.38001
0.1046
0.292644
0.386054
0.122101
0.0979418
0.349385
0.128173
0.337373
0.368007
0.307004
0.0782538
0.366824
0.114678
0.472847
0.18976
0.233635
0.261489
0.584772
0.187743
0.234806
0.224127
0.286098
0.409381
0.150344
0.356252
0.349214
0.244299
0.148872
0.302065
0.209926
0.070582
0.257774
0.340516
0.178953
0.390757
0.193133
0.113725
0.286804
0.162682
0.260308
0.0768483
0.347969
0.168669
0.340754
0.112221
0.372646
0.151067
0.284792
0.581207
0.153758
0.0928328
0.347186
0.106352
0.237387
0.280036
0.154945
0.125265
0.294706
0.369176
0.193291
0.275227
0.313796
0.129799
0.223675
0.0890103
0.463423
0.0690359
0.339567
0.574184
0.191578
0.0911116
0.204041
0.110348
0.34423
0.349169
0.197851
0.325738
0.16621
0.0788457
0.255291
0.188933
0.375441
0.123536
0.244488
0.265195
0.130012
0.133838
0.319524
0.210285
0.321631
0.571107
0.144664
0.114321
0.308655
0.0725241
0.189826
0.16221
0.331778
0.0907455
0.425964
0.0658974
0.208105
0.432506
0.252833
0.133204
0.566667
0.279216
0.196925
0.419763
0.476221
0.26735
0.270348
0.109392
0.235115
0.346064
0.175658
0.289523
0.217531
0.100864
0.293822
0.303403
0.204815
0.284626
0.37107
0.31891
0.208087
0.0809856
0.265206
0.0568775
0.419415
0.103712
0.192627
0.151635
0.274936
0.0867078
0.281918
0.163791
0.262133
0.357733
0.174501
0.192944
0.293379
0.127869
0.295636
0.0871162
0.473122
0.288192
0.279542
0.0924058
0.22471
0.230975
0.238206
0.143186
0.250492
0.411381
0.160813
0.140198
0.204808
0.189347
0.257867
0.114942
0.215562
0.201471
0.214247
0.322993
0.416421
0.147161
0.312471
0.0627978
0.311623
0.101989
0.409281
0.161519
0.282964
0.401284
0.167017
0.232233
0.211312
0.0903918
0.279856
0.283888
0.357472
0.150383
0.277475
0.384498
0.198106
0.182806
0.224446
0.0892948
0.280912
0.0745261
0.229646
0.29148
0.275522
0.192726
0.367628
0.120783
0.252582
0.110235
0.275135
0.147037
0.241537
0.120125
0.228151
0.142818
0.339061
0.225032
0.302146
0.248393
0.230573
1.15761
0.0939388
0.0630899
0.179575
0.119
1.15569
0.057812
0.17015
0.827126
0.137872
0.0822282
0.163491
0.0436072
0.132268
0.108817
0.110034
0.0606507
0.125702
0.937292
0.17216
0.826154
0.119271
0.0729366
0.124418
0.935283
0.145435
0.107918
0.112901
0.822908
0.187774
0.0868009
0.401842
0.11284
0.17307
0.0704869
0.139692
0.172287
0.786525
0.0433806
0.110661
0.513743
0.147902
0.933615
0.0902718
0.0744671
0.168347
0.124948
0.108439
0.0657369
0.169036
0.785107
0.200558
0.056365
0.101941
0.06228
0.198536
0.101911
0.616694
0.0782154
0.163259
0.0799973
0.194108
0.141209
0.165071
0.436458
0.0991628
0.114006
0.219405
0.300554
0.134437
0.22922
0.14711
0.271117
0.145175
0.19834
0.140262
0.0454941
0.157731
0.781904
0.166183
0.615071
0.1227
0.113676
0.134906
0.0746703
0.126804
0.100686
0.189283
0.262609
0.11008
0.122738
0.132906
0.730636
0.17009
0.0962186
0.159136
0.0511105
0.161924
0.145591
0.114044
0.124807
0.191382
0.0553492
0.17106
0.0609915
0.196185
0.27902
0.175741
0.0658418
0.127727
0.131228
0.292772
0.21122
0.212398
0.21802
0.194027
0.457786
0.135559
0.131344
0.192717
0.0929107
0.131694
0.0733163
0.17138
0.184096
0.177712
0.15102
0.160137
0.200068
0.133044
0.135265
0.15556
0.709481
0.160642
0.0772849
0.172699
0.183993
0.149674
0.182416
0.408913
0.140664
0.161683
0.0860732
0.163463
0.266864
0.120857
0.0814024
0.176844
0.0705079
0.139743
0.103852
0.190268
0.076587
0.188598
0.0765141
0.176952
0.402324
0.112354
0.248794
0.132064
0.465571
0.10822
0.155638
0.266201
0.105005
0.163526
0.117926
0.452799
0.144513
0.231347
0.0989082
0.161127
0.123068
0.257127
0.0845529
0.227519
0.0704508
0.154756
0.179829
0.223634
0.403226
0.141172
0.0842263
0.181913
0.136929
0.205015
0.588615
0.144807
0.438742
0.135467
0.436352
0.143346
0.387526
0.153679
0.221015
0.173427
0.398262
0.115923
0.433343
0.145494
0.11141
0.423636
0.088253
0.131194
0.0952396
0.151958
0.420378
0.120297
0.108076
0.121058
0.162528
0.201724
0.450666
0.109309
0.32712
0.146757
0.490585
0.171851
0.424121
0.114511
0.182956
0.378072
0.0945165
0.151087
0.259283
0.218551
0.0690585
0.16917
0.454502
0.114909
0.123947
0.158577
0.101658
0.213599
0.351932
0.210794
0.105087
0.629362
0.0679456
0.188973
0.431287
0.208666
0.326057
0.166546
0.448286
0.145686
0.137522
0.143446
0.171502
0.128276
0.269556
0.134882
0.201002
0.161977
0.141045
0.157976
0.131822
0.333923
0.29503
0.207885
0.146962
0.143419
0.123185
0.117887
0.229802
0.148545
0.297033
0.123912
0.0654576
0.128322
0.0843579
0.26452
0.156018
0.156496
0.106121
0.198225
0.178086
0.183011
0.0985249
0.168662
0.343431
0.238317
0.259526
0.114855
0.0865214
0.161263
0.0667814
0.222133
0.16889
0.16653
0.131434
0.141026
0.168688
0.183319
0.0887952
0.14027
0.130362
0.253515
0.326095
0.136755
0.137503
0.173127
0.216013
0.151185
0.298309
0.133693
0.1753
0.188744
0.123073
0.201779
0.354007
0.170941
0.0988714
0.159763
0.119948
0.244228
0.152043
0.261569
0.0545021
0.15144
0.44446
0.117196
0.0482139
0.129856
0.376008
0.119714
0.078063
0.185251
0.0967758
0.133757
0.0875362
0.213766
0.156816
0.20721
0.100007
0.183745
0.139922
0.216915
0.0922073
0.181308
0.248643
0.201813
0.459576
0.134955
0.0877339
0.171628
0.464515
0.176417
0.175152
0.253909
0.102997
0.133523
0.215293
0.205449
0.132554
0.235391
0.360536
0.182278
0.0931946
0.209874
0.114502
0.165767
0.215829
0.198678
0.427333
0.142089
0.206874
0.179261
0.338739
0.143922
0.156841
0.209421
0.2677
0.137223
0.129886
0.208003
0.165726
0.157984
0.56911
0.124878
0.124058
0.239908
0.0931174
0.211688
0.297732
0.152541
0.0734996
0.20161
0.118821
0.156065
0.157352
0.162597
0.152871
0.232633
0.230187
0.249699
0.208274
0.177703
0.42012
0.146396
0.128605
0.215942
0.150969
0.161289
0.150227
0.1511
0.178181
0.247306
0.0910194
0.165822
0.182644
0.268114
0.174686
0.19718
0.202168
0.162948
0.100443
0.199974
0.170261
0.17149
0.118196
0.213262
0.224736
0.199355
0.0978769
0.156878
0.0895224
0.153091
0.121651
0.286234
0.166615
0.218977
0.171034
0.220393
0.0851506
0.209666
0.250444
0.197834
0.117907
0.228159
0.148805
0.264715
0.165829
0.240953
0.0906102
0.182161
0.203685
0.205645
0.118399
0.165632
0.0736586
0.155488
0.299519
0.150237
0.0844502
0.159485
0.410705
0.143136
0.259207
0.165125
0.145336
0.167566
0.261472
0.151644
0.0649086
0.164255
0.347305
0.152715
0.116673
0.177265
0.356881
0.161743
0.206855
0.19366
0.258483
0.153904
0.238751
0.19326
0.166438
0.211647
0.108552
0.222256
0.131914
0.208095
0.172346
0.0875726
0.0935816
0.0953029
1.15552
0.0879867
0.0657873
0.101559
0.939224
0.0789399
0.110454
0.144584
0.0860315
0.164679
0.097889
0.0912052
0.0752939
0.159255
0.0973482
0.10208
0.517797
0.11298
0.0892099
0.149317
0.0705538
0.102944
0.08977
0.137607
0.112489
0.153407
0.0556313
0.108206
0.395212
0.14673
0.786176
0.0864924
0.0710127
0.133286
0.107389
0.0935849
0.0835053
0.138436
0.122633
0.143042
0.101199
0.117366
0.0672528
0.14186
0.0806459
0.132578
0.0670248
0.137959
0.110246
0.144409
0.284337
0.093376
0.771114
0.0920826
0.771551
0.124691
0.784398
0.0920654
0.471935
0.0918173
0.108417
0.124057
0.0718877
0.134703
0.0967028
0.129174
0.0764037
0.114285
0.103392
0.150261
0.342281
0.112782
0.06029
0.136446
0.0694625
0.114779
0.0568393
0.109128
0.733696
0.0917208
0.0757907
0.125874
0.0773546
0.123525
0.133271
0.164046
0.039656
0.165427
0.10621
0.144981
0.301309
0.0983392
0.425088
0.104914
0.129375
0.133168
0.0507818
0.111152
0.0988676
0.127671
0.0555041
0.129873
0.0843943
0.151908
0.254745
0.0935606
0.0560271
0.129646
0.227996
0.10187
0.305892
0.128136
0.0939925
0.594639
0.0648328
0.155465
0.260626
0.110316
0.0871367
0.594014
0.593286
0.091669
0.116107
0.129907
0.0759327
0.19007
0.121034
0.172058
0.0714004
0.123766
0.0846851
0.164928
0.0926816
0.119229
0.157345
0.176206
0.121213
0.204496
0.148488
0.150873
0.0601062
0.127776
0.0887684
0.145258
0.0978059
0.1385
0.115583
0.167324
0.0711849
0.114373
0.0703488
0.156013
0.0682671
0.103627
0.127856
0.131572
0.45787
0.13885
0.0743566
0.143289
0.107294
0.194135
0.394728
0.0986672
0.1273
0.16898
0.11115
0.142205
0.443006
0.105716
0.142844
0.163889
0.114609
0.1666
0.0586899
0.112823
0.0671915
0.151742
0.104782
0.128968
0.112521
0.111572
0.103111
0.170123
0.0937462
0.127071
0.106524
0.135676
0.0736241
0.122146
0.10478
0.135342
0.104016
0.137134
0.0836674
0.127879
0.154728
0.114774
0.180614
0.132322
0.112328
0.118465
0.385891
0.101038
0.346391
0.100762
0.349269
0.14652
0.10784
0.15858
0.130533
0.117915
0.287588
0.10941
0.122868
0.156288
0.0818741
0.124659
0.0654387
0.138726
0.134881
0.129381
0.0994403
0.12931
0.136828
0.192952
0.0812923
0.136535
0.0646637
0.126161
0.0635826
0.122842
0.628422
0.103698
0.0947311
0.144948
0.101413
0.140183
0.100722
0.166233
0.179197
0.133261
0.0755632
0.133389
0.10786
0.144143
0.0949622
0.145593
0.428675
0.113143
0.123044
0.17458
0.0947502
0.130871
0.266818
0.103952
0.140881
0.138814
0.101062
0.200445
0.0776109
0.148161
0.0830543
0.14232
0.0996248
0.14168
0.279966
0.124704
0.0580707
0.124069
0.049054
0.119403
0.0467142
0.110021
0.0599393
0.104217
0.416031
0.123627
0.332658
0.116659
0.405889
0.120287
0.475085
0.117041
0.0901567
0.194171
0.478261
0.117318
0.277681
0.126135
0.0784293
0.142864
0.149341
0.186025
0.111418
0.181079
0.110414
0.121974
0.0872937
0.176468
0.115605
0.168446
0.0760361
0.152524
0.117001
0.187747
0.140357
0.147286
0.15784
0.199023
0.0747084
0.144713
0.141738
0.245471
0.144816
0.149186
0.100978
0.158281
0.156086
0.185699
0.141075
0.182607
0.225947
0.148216
0.125408
0.334995
0.0970499
0.176406
0.327167
0.137057
0.0769021
0.166172
0.149018
0.270485
0.137899
0.142082
0.254579
0.14873
0.116131
0.168188
0.0561558
0.141787
0.279108
0.15677
0.101175
0.121975
0.180967
0.218579
0.184923
0.132914
0.302808
0.169347
0.060925
0.12539
0.16539
0.164793
0.138036
0.177425
0.17629
0.115794
0.0957546
0.154859
0.242757
0.132616
0.102942
0.210686
0.146166
0.166577
0.170246
0.159769
0.244667
0.172276
0.310522
0.149327
0.474105
0.112751
0.105945
0.202445
0.078016
0.170371
0.183306
0.211116
1.13164
0.10105
1.13083
0.502755
1.09559
1.0899
0.260915
1.08705
0.183262
1.1298
0.157989
0.0670766
1.08697
0.122847
0.496914
0.692427
0.983825
0.0699157
0.69219
0.14939
0.492372
0.108014
0.98339
0.981231
0.184223
0.111709
0.490448
0.138674
0.690329
0.424084
0.346777
0.111917
0.980745
0.157439
0.687589
0.113363
0.421367
0.100721
0.978579
0.104213
0.68679
0.154134
0.414377
0.978934
0.173417
0.103488
0.978193
0.0931204
0.686219
0.366629
0.279654
0.103782
0.343651
0.483033
0.937241
0.121417
0.362135
0.168715
0.682802
0.0886014
0.177121
0.0752773
0.482423
0.188728
0.323521
0.257225
0.312344
0.191104
0.246025
0.4501
0.276285
0.112813
0.936696
0.147994
0.680477
0.18386
0.289474
0.928611
0.27632
0.107873
0.928126
0.130867
0.435148
0.439058
0.187079
0.184373
0.675935
0.22693
0.280946
0.128601
0.266704
0.205862
0.2172
0.117467
0.273927
0.100638
0.927731
0.54403
0.860637
0.117929
0.268929
0.179548
0.42471
0.0973343
0.675262
0.656902
0.290193
0.232666
0.400029
0.142316
0.540764
0.141629
0.6547
0.151901
0.251694
0.166954
0.858537
0.132077
0.39517
0.147134
0.537108
0.114771
0.284081
0.206739
0.375329
0.182161
0.649966
0.348461
0.614701
0.117756
0.857798
0.492659
0.328265
0.13357
0.489364
0.212452
0.237147
0.501771
0.796258
0.143967
0.340069
0.097762
0.500531
0.196677
0.490197
0.159442
0.483656
0.428726
0.325025
0.212457
0.309817
0.21369
0.271353
0.111226
0.795534
0.15439
0.611437
0.230185
0.285114
0.369919
0.562491
0.17388
0.261684
0.255908
0.395881
0.296075
0.299702
0.145772
0.38918
0.11859
0.365811
0.135495
0.486722
0.12788
0.794431
0.190539
0.301542
0.273712
0.305262
0.17548
0.556739
0.34535
0.420051
0.154594
0.334698
0.236754
0.357458
0.595147
0.662353
0.127325
0.593198
0.1201
0.298935
0.171403
0.55127
0.292969
0.365854
0.102047
0.288783
0.173192
0.588236
0.135809
0.660444
0.225086
0.296592
0.209696
0.540965
0.627438
0.345013
0.175796
0.622803
0.239922
0.524753
0.21742
0.338225
0.165338
0.583849
0.116803
0.340492
0.241791
0.293717
0.179714
0.617775
0.212556
0.609271
0.214136
0.512587
0.171095
0.57891
0.248051
0.595245
0.479536
0.465138
0.22313
0.498087
0.256661
0.561579
0.237391
0.547068
0.222428
0.463022
0.471238
0.389481
0.19999
0.452473
0.327997
0.399958
0.244951
0.477501
0.348001
0.396852
0.334796
0.380545
0.205572
0.36937
0.285746
0.440616
0.205363
0.377603
1.1311
0.127848
0.499405
0.136144
1.09486
0.13788
0.138485
0.19969
0.124679
1.08935
0.131348
0.178598
1.08878
0.126478
0.153291
0.136669
0.219798
0.192591
0.148029
0.157403
