# vtk DataFile Version 3.0
Tree
ASCII
DATASET POLYDATA
POINTS 1582 float
162774 225274 273.8
162774 225274 10273.8
141774 225774 23773.8
135122 214198 30497.8
137117 217671 28480.6
134774 208002 54773.8
133637 213144 38141
116774 203986 46773.8
134433 209545 49783.8
154774 199774 64893.8
134671 208465 53277
119774 197774 67933.8
117685 203605 46381.8
105574 194774 52773.8
149562 201572 63320.6
156774 193774 82797.8
151725 199233 69163.8
168774 183954 69773.8
151076 199934 67411
133774 195774 85893.8
120197 198115 65998.6
104258 186774 77773.8
157231 193988 80460.2
169774 184774 92393.8
109039 190176 74241.4
94289.8 181774 66773.8
115064 194463 69790.2
117774 191942 84773.8
164977 185534 69329
174530 165774 67773.8
166504 186487 87570.2
177774 173978 87773.8
138965 197022 80349
142774 195998 102774
117322 192910 83388.2
119774 193998 103774
96876.6 182363 69350.2
84321.8 169774 70773.8
172383 166365 68349.4
177834 149774 67773.8
170161 172116 68643.4
169978 158774 47773.8
172589 179732 87680.2
179978 171774 108774
104669 187262 77652.2
89773.8 177866 89773.8
174018 161388 68176.6
180530 155774 79773.8
116703 193051 93377
106774 191194 103774
88042.2 173340 72235.4
79509.8 163774 84773.8
118279 193946 102235
116774 195998 118774
119325 193982 103312
131774 195998 114774
143541 195969 95345
157774 193230 105774
176786 153368 69487
182070 139774 78773.8
179217 147115 73759
180022 129774 65773.8
178546 171823 104199
183998 156774 116774
131275 195192 112989
147774 195998 124774
179191 136263 67308.6
176098 132774 56773.8
176136 174884 88433.4
181998 162774 92773.8
85437.8 170844 71212.2
79533.8 149774 71773.8
81148.2 166275 84681.4
75609.8 161774 98773.8
94242.2 180685 86137.4
87773.8 183774 107418
89403.8 180905 98177
79549.8 172774 106774
180695 164083 92161.8
183998 148774 96773.8
156299 192627 104677
168774 187946 113774
116415 195907 118241
113774 198018 135774
137544 195498 117467
135774 197218 133774
177026 133821 59934.2
179810 119774 55773.8
176631 132691 57098.6
175998 127774 45773.8
182526 158317 113799
183998 138774 119774
183556 157237 115881
183998 151774 134774
137976 196414 129467
147078 195774 143774
82428.6 155048 70037.4
85449.8 134774 60773.8
79043.8 164565 90036.6
77485.8 146774 93773.8
183865 153413 129106
182774 137590 134774
177448 129075 48645.4
184774 124774 37973.8
147155 195271 123221
163082 191774 127774
77629 162274 96977
79485.8 156774 112774
183106 150527 95248.6
183998 131774 94773.8
88064.2 182490 106210
85773.8 181774 121894
80402.2 151356 71253
79541.8 138774 81773.8
78780.2 158864 106771
79561.8 143774 109774
88497.4 184077 114332
91573.8 188774 121774
114566 197385 130514
100774 193250 139774
109963 195763 136271
108282 193774 153774
183899 152890 133877
183774 153774 149018
142163 196119 136048
133774 198014 152774
158304 192823 126408
163074 191774 139774
182403 143552 134717
176774 131578 151774
182624 140548 119032
180774 122774 123954
86591 182465 119625
83773.8 169774 127042
179515 171379 108401
181886 168774 122774
84928.2 138288 64255
87549.8 120774 67773.8
180861 128715 123912
176774 120774 135958
137578 197340 150565
137774 197774 164002
85295 176627 123037
89021.8 175774 135774
86284.6 131107 63877.8
89561.8 120774 54773.8
183561 152204 144105
181942 144774 151774
90404.6 186989 118946
102774 193962 117774
80335.8 140351 80193
83553.8 125774 90773.8
108105 192771 150040
103774 182774 160862
85485 136146 61149
87601.8 131774 50773.8
161648 192089 127364
173978 182774 126774
176165 133195 150480
169774 127090 161774
105766 187373 155884
111002 187774 165774
176591 132063 151386
171774 120330 149774
79327.4 148301 108873
83597.8 143774 122774
180399 124124 123226
177774 110774 118906
88578.6 123874 57505
91661.8 110774 60773.8
109431 187653 162807
120302 196774 165774
183115 152848 148045
179966 153774 162774
80259.4 144625 109802
85533.8 130774 113774
183773 154560 125139
183230 163774 134774
88169.4 122107 67895.4
91569.8 110774 73773.8
138309 197237 161882
141970 194774 174774
84126.6 126752 89074.6
88357.8 116774 93773.8
84882.2 170761 126542
87017.8 155774 135774
172839 122440 148949
170094 112774 140774
89625.8 120955 55186.6
93601.8 110774 47773.8
104371 184153 159369
98325.8 170774 157774
171070 114531 141581
171774 106686 130774
88121 174744 133357
89773.8 166774 143074
170012 127555 159000
163322 121774 164774
88751.4 175465 135049
95773.8 178774 148962
177905 112353 117945
175774 102774 112814
83725.8 126067 90263.8
85497.8 124774 102774
146268 195587 143232
150774 193774 154802
174319 131503 153036
173774 137774 165970
84678.2 134233 114101
89593.8 128774 123774
110531 187738 164884
115774 183190 176774
169845 127229 160942
165842 129774 171774
85522.6 166265 129312
81773.8 156774 124790
172093 120963 149526
165774 113774 150574
87973.8 118628 93780.6
93773.8 110774 102886
103953 183188 160414
107774 176878 170774
179800 152625 160861
175774 150730 172774
100887 174337 159172
101510 162774 163774
167043 129011 168524
158774 124226 173774
92153.8 111881 72172.6
97541.8 101774 74773.8
134915 197812 152111
121774 200002 150774
170387 113301 141016
161882 102774 140774
177304 151450 168247
175326 160774 175774
91668.6 112631 59471.4
97657.8 98773.8 57773.8
168306 187059 127045
175910 180774 142774
170485 106981 132272
167974 98773.8 123774
90177.8 115643 97240.6
96289.8 105774 93773.8
107951 177518 169699
112774 171954 178774
183576 153496 148726
181970 167774 147774
176233 150946 171416
170774 141774 175326
173713 182273 136569
179230 175774 137774
168624 100042 124528
167774 92001.8 112774
93363 111809 102516
97773.8 108774 111134
149332 193794 153902
150774 191774 164810
165002 123000 161886
154774 112774 161882
85762.6 131415 113993
90773.8 120774 113958
168771 95203.8 115653
172774 94773.8 103954
88991.8 130248 122588
94773.8 128774 133958
162577 126427 171359
159030 131774 184774
102029 166681 163313
106774 161774 171986
171121 143746 175880
165774 138334 181774
175083 158956 175600
169774 165774 189050
163143 191017 137737
168774 187870 147774
167840 92506.6 112752
165182 85773.8 103774
96573.8 106692 94603
104290 97773.8 92773.8
163095 191547 139163
158774 191990 148774
173490 161002 179635
168774 153774 189294
96897 101395 59261.8
103774 90773.8 65129.8
181816 165039 148910
177774 175774 154054
97423 108925 109317
103774 103998 114774
111752 172171 177331
114774 162774 185970
168169 99154.2 124000
159774 89773.8 121966
94734.6 128059 133116
99773.8 125774 141970
172973 96145.8 105267
176774 97661.8 96773.8
105253 162091 169376
107774 151774 175026
172833 95185.4 104348
171810 88773.8 94773.8
102974 99389.8 92147.8
109774 92117.8 84773.8
167283 188010 147082
169886 184774 156774
169937 165465 187322
163774 172774 194866
96649.4 127191 136481
96773.8 134226 143774
168935 155247 188577
163958 150774 197774
89413 129216 123418
96345.8 117774 124774
150477 191255 163797
151774 187034 176774
101869 105476 113137
110314 95773.8 109774
164862 86993 105778
157774 81497.8 100774
103202 104441 114283
105998 107774 126774
113779 163911 183470
113498 152774 184774
167102 168827 190792
160774 178774 185962
103813 91932.6 63309.4
111774 82773.8 65333.8
97562.6 103145 74781.4
103774 95121.8 77773.8
169733 184807 155277
173810 178774 164774
97581.4 99620.6 57671.8
100318 93773.8 50773.8
175509 96587 98206.2
177242 93773.8 85773.8
113571 154521 183862
113482 143774 180774
161035 84025.8 103076
162774 81533.8 89773.8
97160.2 132683 143091
99773.8 136774 152962
162489 85153.4 104103
153886 81773.8 109774
173264 179300 162210
177774 170898 164774
163931 171483 193055
152774 177934 196774
169840 184784 156325
166774 184022 165774
110605 84070.6 64288.6
118774 74373.8 61773.8
163424 82520.2 92402.2
170774 83773.8 82893.8
105159 106774 123027
116302 100774 131774
98989.8 135547 150001
95761.8 148774 152774
173646 178932 164005
173206 173774 172774
96075 127451 135471
103774 116334 137774
114475 163115 185220
119554 154774 195774
96680.6 141865 149483
93509.8 146774 145774
162707 81510.6 89994.2
159930 77773.8 81773.8
113592 144413 180416
113774 133774 175966
109794 103614 125368
116774 95773.8 122882
113515 143965 180666
119006 139774 189774
99862.2 136610 152588
103710 140774 162774
169237 83015.4 84184.2
173974 80773.8 73773.8
167440 183417 164847
164774 180774 175962
113290 137217 176314
110774 131774 167326
161580 78521.8 83403.4
164774 73773.8 72861.8
116480 141702 185584
120774 131598 184774
114349 101626 129852
118774 105774 143322
115729 97610.6 124113
122774 93773.8 126882
118970 95845.8 125387
123774 91005.8 119774
118248 140352 188517
123774 143774 199978
94968.2 144516 147480
90773.8 141590 136774
115677 102870 133893
124438 98773.8 137774
117130 105658 140645
114774 112206 147774
118281 105739 142519
125774 102774 145326
91447.8 143105 139105
87497.8 146774 132774
123917 91433.4 120450
129774 87001.8 115774
115481 110241 145635
108254 116774 145774
93987.4 146701 146526
90773.8 155774 143958
123526 103663 144484
130774 105774 154862
128017 88331.4 117177
136746 85773.8 120774
129247 87400.6 116195
137774 83017.8 111774
110422 114814 145732
107518 124774 153774
126280 104465 148427
122226 111774 156774
95971.4 148028 151885
95485.8 156774 152774
108854 120192 150075
113774 121090 159774
132487 85735 114515
131774 81773.8 101886
133429 86745.8 119407
135774 89773.8 129026
136483 83514.6 111629
141774 79773.8 103886
107774 124377 153640
106774 130774 159950
133402 82455.8 104216
136774 79681.8 95773.8
134953 81179.8 100333
128530 81773.8 91773.8
113539 120383 157995
121582 117774 165774
119169 118557 163440
120270 122774 171774
120858 118009 165074
129774 111774 163962
120910 120681 169030
128222 120774 177774
138514 220101 27068.6
142774 211998 36773.8
135516 215589 32924.2
126282 209774 32773.8
141971 214059 36468.2
144774 210098 46773.8
128572 209957 41714.6
128226 208774 47773.8
140525 207144 53884.2
148774 207774 52965.8
127586 204667 57084.2
121774 203774 55969.8
134743 208141 54324.6
137774 205774 61941.8
146459 204583 56958.2
153974 202774 56773.8
[...]
CELL_DATA 1581
SCALARS radius float
LOOKUP_TABLE default
2.122e-314
100
100
1.16017
0.0777212
1.15926
1.15727
0.192104
0.989409
0.834596
0.162864
0.987936
0.0730028
0.144465
0.832832
0.112125
0.423371
0.766963
0.807757
0.369923
0.983186
0.103589
0.0711159
0.763776
0.79439
0.433087
0.835169
0.716523
0.0848384
0.418022
0.0914869
0.759497
0.15717
0.353721
0.712904
0.101779
0.137636
0.793011
0.0789928
0.384336
0.385445
0.223867
0.273418
0.747497
0.0518298
0.432839
0.372259
0.154618
0.705153
0.226949
0.540072
0.698369
0.559049
0.560311
0.10526
0.557803
0.235735
0.310809
0.357656
0.18004
0.324236
0.226786
0.163204
0.743425
0.553639
0.144428
0.123802
0.318105
0.0728463
0.271684
0.0666972
0.697526
0.538263
0.116412
0.425523
0.125837
0.193438
0.411757
0.0802906
0.208661
0.0902693
0.241245
0.103667
0.558058
0.435426
0.441509
0.26976
0.232442
0.0754861
0.267775
0.710097
0.360886
0.0644723
0.709919
0.43065
0.139022
0.623302
0.454661
0.524093
0.19628
0.49605
0.615232
0.12982
0.257192
0.155881
0.433331
0.0813277
0.523439
0.100406
0.200604
0.0763077
0.409248
0.108673
0.618832
0.512967
0.181355
0.34726
0.298761
0.54673
0.192388
0.54171
0.164611
0.116743
0.493885
0.361537
0.319491
0.324452
0.357106
0.164593
0.609967
0.328082
0.188233
0.130224
0.341045
0.0602435
0.16042
0.427321
0.240381
0.299657
0.203331
0.164866
0.340839
0.268471
0.265047
0.374148
0.29493
0.479164
0.198114
0.177261
0.276316
0.12023
0.616602
0.536378
0.13251
0.0739493
0.213244
0.120113
0.31887
0.558373
0.370255
0.297635
0.501936
0.06301
0.558105
0.496555
0.223331
0.0877005
0.297132
0.151388
0.365697
0.253593
0.21586
0.220432
0.46308
0.491893
0.150601
0.708025
0.122541
0.0789672
0.293031
0.185314
0.297734
0.153415
0.610611
0.0896935
0.265092
0.22671
0.541815
0.063583
0.147553
0.426702
0.365347
0.156255
0.531061
0.160818
0.23439
0.293668
0.2478
0.213373
0.146785
0.105879
0.280812
0.129065
0.113466
0.158959
0.300972
0.207621
0.347072
0.249055
0.469617
0.0785757
0.178451
0.0739768
0.292095
0.19851
0.221086
0.132822
0.210363
0.0790626
0.606975
0.0633856
0.426235
0.0893833
0.456932
0.3309
0.210829
0.274359
0.162229
0.264756
0.142541
0.0877343
0.156129
0.0708031
0.151251
0.235996
0.4318
0.0912337
0.360059
0.293208
0.181328
0.093663
0.524891
0.589131
0.267532
0.0790823
0.421943
0.0571657
0.219143
0.0874747
0.23192
0.222019
0.185731
0.504243
0.223473
0.581193
0.201273
0.187213
0.267763
0.222413
0.161521
0.0677984
0.247369
0.360493
0.433317
0.46066
0.179817
0.134944
0.263014
0.11571
0.31124
0.171714
0.170789
0.17995
0.421121
0.146361
0.344693
0.0747501
0.423441
0.0828228
0.232379
0.0701992
0.140767
0.293687
0.35045
0.191173
0.33651
0.155016
0.189444
0.576664
0.165753
0.090457
0.41727
0.0701856
0.221141
0.456609
0.136735
0.316089
0.248074
0.255138
0.218464
0.085805
0.224469
0.114645
0.177096
0.0899475
0.342639
0.104917
0.289155
0.127451
0.430428
0.16602
0.308092
0.0670781
0.176651
0.0966354
0.253243
0.572162
0.16457
0.116558
0.420476
0.0706662
0.571802
0.403133
0.177213
0.183072
0.262271
0.110203
0.302972
0.102271
0.24612
0.286688
0.25542
0.0842409
0.153537
0.127746
0.308975
0.386948
0.196423
0.384548
0.229792
0.0964028
0.424371
0.410156
0.174796
0.179454
0.202446
0.127809
0.251736
0.0711365
0.28522
0.124539
0.281005
0.309677
0.30062
0.566244
0.175429
0.360268
0.309562
0.102409
0.193304
0.434121
0.237428
0.0847187
0.170509
0.322772
0.235936
0.0782893
0.308
0.341587
0.262464
0.484217
0.40369
0.0663028
0.340752
0.0738836
0.308153
0.155851
0.285953
0.186973
0.255436
0.201706
0.214535
0.159998
0.292878
0.188317
0.320388
0.10284
0.482666
0.396668
0.149979
0.121047
0.392874
0.193929
0.294699
0.271726
0.238486
0.144822
0.47828
0.334628
0.415896
0.0843132
0.332834
0.150943
0.255217
0.0833532
0.39162
0.114503
0.412982
0.10225
0.232048
0.250713
0.276382
0.321791
0.286447
0.0885988
0.319536
0.119004
0.409662
0.165608
0.223852
0.118729
0.196282
0.206799
0.383408
0.217291
0.28175
0.228939
0.225744
0.123674
0.20302
0.0963597
0.199576
0.150954
0.266495
0.190513
0.229018
0.123027
0.379138
0.271936
0.309058
0.223054
0.2081
0.175571
0.288883
1.15938
0.147038
1.15903
0.0974414
0.0819527
0.123162
0.0913538
0.178302
0.0931082
0.83421
0.986997
0.113779
0.0460012
0.161632
0.833509
0.0921422
0.98357
0.215309
0.0781962
0.155285
0.113972
0.131308
0.0574384
0.0973326
0.363776
0.13539
0.0998021
0.207909
0.0951227
0.421764
0.17089
0.11445
0.764834
0.155306
0.182327
0.760297
0.0715599
0.166601
0.0788385
0.125819
0.117418
0.14431
0.104239
0.113824
0.713595
0.164987
0.0625345
0.179841
0.0647327
0.153421
0.419184
0.111024
0.350678
0.104227
0.409132
0.13739
0.0934698
0.158879
0.0488119
0.11075
0.0978565
0.431166
0.116131
0.143011
0.197348
0.175594
0.380946
0.114185
0.42916
0.10365
0.212551
0.218635
0.697729
0.0978248
0.181405
0.178836
0.111153
0.166266
0.0402738
0.103257
0.552461
0.102605
0.180992
0.16482
0.0654764
0.194915
0.0566158
0.159615
0.125663
0.158004
0.739899
0.179862
0.695303
0.0941393
0.695878
0.133871
0.0900897
0.213412
0.533114
0.164274
0.0849406
0.199105
0.0463845
0.177789
0.559248
0.0999744
0.114418
0.162874
0.0550609
0.164228
0.0564732
0.141491
0.257627
0.208982
0.122148
0.155325
0.16605
0.1491
0.245386
0.132448
0.0768056
0.12485
0.0927727
0.221488
0.111207
0.16191
0.0586857
0.111212
0.0698736
0.135566
0.0419948
0.101317
0.619947
0.15726
0.0747458
0.19118
0.0767578
0.150912
0.058236
0.153123
0.451305
0.12737
0.110019
0.199669
0.104401
0.148752
0.520415
0.135212
0.1686
0.198031
0.128707
0.228357
0.112715
0.183013
0.11354
0.184715
0.117079
0.177932
0.347557
0.111574
0.613936
0.113681
0.0644239
0.189949
0.132537
0.156072
0.0776749
0.130418
0.511179
0.112057
0.0655845
0.185541
0.12687
0.157709
0.140692
0.181574
0.105773
0.540362
0.0694854
0.160357
0.746038
0.100229
0.0716016
0.150878
0.430338
0.118737
0.139538
0.160526
0.0529289
0.148389
0.106046
0.608897
0.53906
0.104394
0.111028
0.14568
0.0730234
0.122071
0.0906801
0.17802
0.353274
0.113204
0.26931
0.116089
0.117983
0.18305
0.35324
0.147043
0.336109
0.119288
0.127663
0.334761
0.126894
0.259571
0.554736
0.146272
0.534643
0.114281
0.613822
0.0965185
0.0737249
0.257573
0.143895
0.175733
0.226131
0.168042
0.100209
0.131253
0.0549007
0.156746
0.101644
0.197167
0.0747837
0.181162
0.224519
0.179367
0.0991789
0.167103
0.116572
0.212198
0.12023
0.161442
0.156666
0.195504
0.082789
0.177221
0.357271
0.146793
0.105206
0.609568
0.138998
0.207062
0.052951
0.129956
0.140692
0.254289
0.111589
0.46091
0.216168
0.155894
0.267903
0.192783
0.458069
0.121635
0.176358
0.161717
0.122556
0.176293
0.169733
0.227238
0.454124
0.120459
0.0651645
0.142373
0.194164
0.117684
0.157935
0.157179
0.209732
0.234637
0.169894
0.242408
0.316482
0.165495
0.0734042
0.165198
0.418682
0.120004
0.525884
0.163093
0.213144
0.17602
0.0767934
0.207376
0.172165
0.224666
0.118424
0.156299
0.104795
0.203312
0.111377
0.19571
0.160331
0.190201
0.251871
0.137149
0.258884
0.198798
0.0847744
0.153328
0.0724657
0.175944
0.153259
0.235185
0.0851351
0.18353
0.215765
0.134432
0.0642991
0.13483
0.152394
0.244717
0.0544096
0.199939
0.0701935
0.183864
0.0948568
0.150606
0.0898134
0.168496
0.144441
0.183829
0.323389
0.209692
0.300129
0.146047
0.408908
0.184798
0.114703
0.211305
0.191848
0.176382
0.319964
0.168196
0.1181
0.156597
0.122694
0.163474
0.0849199
0.158256
0.151058
0.184067
0.0801668
0.181925
0.116098
0.168052
0.098217
0.199756
0.144578
0.172266
0.0637507
0.162548
0.518469
0.173733
0.175451
0.137361
0.161043
0.17389
0.17095
0.214817
0.177117
0.179194
0.307756
0.186085
0.15779
0.279226
0.0621514
0.132313
0.140197
0.26691
0.0983268
0.150186
0.127203
0.130777
0.110355
0.204634
0.24145
0.137283
0.118938
0.154924
0.247652
0.242766
0.185216
0.21463
0.56391
0.130769
0.102854
0.206448
0.184793
0.191963
0.176579
0.187845
0.0809942
0.191721
0.161563
0.140434
0.156489
0.224776
0.190097
0.208648
0.119656
0.166277
0.142634
0.195958
0.209809
0.157377
0.23691
0.216055
0.104599
0.180725
0.144214
0.133878
0.191271
0.247666
0.169346
0.217823
0.141076
0.297964
0.231181
0.233719
0.422867
0.122124
0.0965526
0.185599
0.17771
0.275198
0.0976156
0.271041
0.1117
0.203925
0.0791393
0.142242
0.17558
0.224095
0.195563
0.262629
0.159773
0.251104
0.182498
0.185826
0.182551
0.22914
0.256362
0.16215
0.106022
0.25017
0.0678326
0.158092
0.103322
0.181417
0.384455
0.147916
0.402496
0.15248
0.180533
0.182871
0.0904432
0.175177
0.18128
0.173909
0.18033
0.178001
0.0846718
0.157751
0.367492
0.169497
0.198906
0.198212
0.0823576
0.193355
0.0960421
0.201044
0.232841
0.225618
0.134232
0.0912717
0.185962
0.0870018
0.0937869
0.169195
0.987501
0.108398
0.0544299
0.103616
0.833884
0.0879486
0.0596272
0.108035
0.0829624
0.119184
0.075577
0.0992593
0.044551
0.0967505
0.150429
0.112911
0.763981
0.11434
0.0527473
0.110586
0.0691108
0.105215
0.186527
0.135674
0.0863244
0.122851
0.169004
0.0996474
0.0977748
0.141135
0.0541883
0.13842
0.759939
0.085239
0.0593527
0.110714
0.414232
0.125336
0.0523523
0.0969345
0.0793313
0.113694
0.0748253
0.130711
0.0780386
0.146372
0.0763031
0.747232
0.218324
0.093328
0.0935587
0.121065
0.0934741
0.147266
0.792713
0.0825394
0.74664
0.0996519
0.090097
0.129931
0.127325
0.149628
0.297106
0.139238
0.0869364
0.110125
0.161955
0.116665
0.0868961
0.139142
0.089526
0.125611
0.100964
0.151078
0.130008
0.114445
0.20413
0.106675
0.0553559
0.160714
0.0822922
0.151963
0.556896
0.0945492
0.114902
0.138105
0.0648031
0.144902
0.306969
0.1032
0.119913
0.118371
0.210235
0.11631
0.439953
0.0968011
0.0847046
0.156395
0.0908455
0.358957
0.150116
0.179091
0.116902
0.138328
0.709247
0.100546
0.136561
0.147322
0.111963
0.13429
0.410131
0.0937502
0.0575389
0.103006
0.0695304
0.141967
0.554558
0.100663
0.0853687
0.126242
0.555661
0.130633
0.351348
0.142264
0.206231
0.146385
0.155254
0.161575
0.0758744
0.121473
0.0884491
0.12981
0.10455
0.134763
0.0868305
0.122033
0.103835
0.132333
0.0784627
0.116552
0.133778
0.166231
0.119431
0.157805
0.171228
0.228894
0.31508
0.110031
0.0908622
0.147047
0.167032
0.150555
0.122538
0.131935
0.101287
0.128871
0.0562227
0.112224
0.295332
0.114571
0.490197
0.138875
0.144136
0.207992
0.0628099
0.114091
0.618122
0.0934085
0.110356
0.140601
0.31471
0.107793
0.0747159
0.151909
0.608083
0.0966988
0.116596
0.115592
0.0663996
0.152585
0.0682808
0.112389
0.614617
0.131163
0.0868035
0.134584
0.205789
0.0993905
0.0868535
0.118679
0.0909241
0.140166
0.134915
0.143762
0.257311
0.116555
0.343534
0.10817
0.128362
0.156691
0.362001
0.113646
0.0981022
0.147119
0.0718081
0.123556
0.141812
0.19962
0.535533
0.176187
0.136243
0.147998
0.119804
0.156684
0.183391
0.157274
0.0762289
0.171296
0.0512284
0.112664
0.0854746
0.163886
0.277868
0.154771
0.10732
0.137772
0.0765828
0.193238
0.151506
0.130159
0.607422
0.133599
0.0991572
0.142146
0.0461322
0.110865
0.0985942
0.18676
0.285742
0.142646
0.0696864
0.190169
0.13819
0.165412
0.107603
0.136491
0.100449
0.11852
0.0763083
0.124724
0.0983672
0.14323
0.163089
0.17067
0.0782476
0.147794
0.0940695
0.157578
0.137832
0.162137
0.0780401
0.134273
0.0754744
0.139816
0.07137
0.167976
0.355934
0.116623
0.12264
0.182815
0.168038
0.201432
0.176605
0.142535
0.148287
0.146531
0.12588
0.183495
0.103155
0.163316
0.115941
0.147357
0.235834
0.104087
0.158199
0.1947
0.0965996
0.159795
0.160991
0.156024
0.122287
0.163281
0.140997
0.18583
0.158606
0.151919
0.0776216
0.157004
0.137054
0.142147
0.0978856
0.19055
0.115978
0.150536
0.0686429
0.131392
0.257849
0.127124
0.104996
0.149641
0.146308
0.133525
0.228573
0.149252
0.126107
0.170003
0.0665531
0.18294
0.328942
0.135966
0.424216
0.171223
0.41424
0.116261
0.168477
0.214528
0.0610018
0.181806
0.116019
0.151222
0.139728
0.148598
0.150788
0.186094
0.0736241
0.232755
0.194239
0.226931
0.124783
0.220127
0.201112
0.138909
0.157376
0.22853
0.295102
0.152482
0.145397
0.196546
0.141325
0.117793
0.12539
0.148464
0.138442
0.155916
0.102955
0.219635
0.426023
0.134314
0.0801337
0.123528
0.168344
0.212064
0.288933
0.154524
0.0737926
0.18397
0.135422
0.206223
1.11298
0.0799596
1.11141
0.724454
0.996996
0.702946
0.298595
0.167957
0.69629
0.160129
0.721837
0.0808542
0.695926
0.995561
0.162251
0.116628
0.694832
0.13788
0.994679
0.156589
0.692171
0.449135
0.963167
0.0903397
0.447913
0.95999
0.206554
0.157579
0.689438
0.126219
0.444547
0.105726
0.959562
0.158212
0.68665
0.119321
0.441663
0.106981
0.957392
0.0959843
0.686024
0.134415
0.437474
0.957837
0.168175
0.118727
0.684836
0.107771
0.956937
0.196538
0.42383
0.0958572
0.422189
0.952462
0.230441
0.898289
0.518267
0.0722889
0.898133
0.364588
0.29922
0.131973
0.215002
0.127541
0.188875
0.135714
0.515146
0.0872806
0.897858
0.148628
0.682495
1.11155
0.174503
0.121004
0.36009
0.177253
0.276856
0.152667
0.896384
0.290461
0.886101
0.490136
0.266654
0.18136
0.481716
0.102569
0.286134
0.106614
0.681627
0.107747
0.885569
0.198774
0.24972
0.172884
0.677899
0.0997689
0.261915
0.247212
0.316095
0.16413
0.300597
0.137702
0.234901
0.566789
0.800215
0.110505
0.479769
0.202204
0.467485
0.0992128
0.565774
0.145685
0.675649
0.375589
0.634506
0.293083
0.302964
0.143096
0.246824
0.110338
0.465427
0.227885
0.446454
0.154247
0.7983
0.783566
0.302395
0.119908
0.563973
0.161496
0.275731
0.135611
0.632435
0.141196
0.441696
0.102285
0.299027
0.106814
0.782904
0.136838
0.292751
0.300716
0.533898
0.217758
0.256461
0.121678
0.531783
0.504595
0.279808
0.136513
0.781518
0.180181
0.627522
0.229767
0.244455
0.198832
0.620796
0.34502
0.583021
0.258946
0.480755
0.109318
0.780804
0.171808
0.271524
0.122574
0.249447
0.126905
0.245654
0.767919
0.285126
0.126402
0.766776
0.239517
0.460059
0.145685
0.765019
0.149687
0.264731
0.154032
0.45423
0.106042
0.341648
0.13596
0.580546
0.208868
0.439005
0.188024
0.430033
0.152625
0.762988
0.210426
0.757615
0.221645
0.409436
0.274709
0.267528
0.305125
0.383041
0.148212
0.271098
0.657912
0.531425
0.110853
0.656861
0.201387
0.572353
0.259241
0.338475
0.174479
0.52508
0.165059
0.653369
0.294648
0.350492
0.281435
0.496615
0.539471
0.495853
0.222213
0.560962
0.122659
0.537349
0.130171
0.271828
0.148194
0.492176
0.187913
0.486688
0.215553
0.550146
0.304817
0.443034
0.172918
0.531313
0.163438
0.486094
0.171758
0.434256
0.460311
0.37433
0.217864
0.538513
0.26706
0.428153
0.206477
0.352095
0.28833
0.386912
0.18353
0.477212
0.278648
0.384515
0.275962
0.513184
0.206754
0.463908
0.327002
0.464444
1.11097
0.117172
0.720464
0.128892
0.095534
0.150361
0.118195
0.70183
0.147537
0.286071
0.172168
0.263559
0.699532
0.150141
0.0916914
0.259807
0.135888
0.246772
0.139109
0.231057
