# vtk DataFile Version 3.0
Tree
ASCII
DATASET POLYDATA
POINTS 1582 float
162774 225274 273.8
162774 225274 10273.8
141774 225774 23773.8
135774 213962 30773.8
138274 219134 30563.8
131774 207874 54773.8
134764 213053 43637.4
152858 203774 58773.8
133149 210256 49651
113590 200774 51773.8
132187 208589 53237
132774 198774 73885.8
148661 204879 57386.2
157774 193774 78053.8
132504 203289 64387.4
111774 192006 72773.8
155040 197105 71853.4
167974 184774 70773.8
115762 194460 69109.4
100282 187774 62773.8
158028 193947 77028.6
167986 184774 89773.8
133099 199862 73065.8
135774 195262 91773.8
111949 191949 72318.2
100774 184062 80773.8
111826 191989 72637
117774 191942 84773.8
165399 185443 70645.4
174530 165774 67773.8
166667 185851 86188.2
177774 174774 88741.8
104126 186428 78237
87449.8 172774 70773.8
170979 171538 66819
171994 157774 53773.8
115832 192247 83605.8
118774 194002 106774
174442 178097 87975.8
179866 172774 105774
135612 196607 89522.6
139774 195998 111774
173453 166334 67927
179774 148774 72345.8
92452.6 176870 73012.6
81617.8 168774 85773.8
139611 196031 99725.8
153774 194014 106774
88897.4 173043 72195.8
79565.8 159774 72773.8
115313 192713 94818.2
104774 191194 105774
178091 151695 70372.6
179946 135774 66773.8
175958 158429 69247.4
182018 153774 85773.8
178546 172397 100245
183998 156774 110774
85735 171850 80924.6
85773.8 179270 99773.8
117143 194079 105075
115774 197774 124530
118541 195346 112806
129774 196006 122774
148392 194780 104095
149774 195998 117774
148701 195669 115621
144774 195998 128774
153049 193750 105622
165126 189774 106774
179241 141824 68141.4
183998 131774 79773.8
179734 137589 67184.2
178002 123774 54773.8
182689 157723 110487
183998 146774 118774
181118 154611 85167.4
183998 152774 97773.8
183291 152687 114299
183998 154774 129774
81829 161537 73177.8
77733.8 146774 76773.8
79289.8 152384 75407.4
82773.8 139594 64773.8
80254.6 155862 74560.2
75545.8 152774 90773.8
77597 154322 88945.4
77489.8 154774 102774
77815.4 156259 97947.4
79485.8 166774 110774
85204.6 177999 99169.8
83773.8 181090 113774
116101 197414 124059
112774 199886 143774
149452 195899 117128
159074 193774 128774
125983 196055 121805
130774 198002 140774
183358 148109 118871
182002 134774 135774
131197 196955 135255
145774 195394 148774
178916 173141 104774
177890 176774 118774
76161 153238 90225.4
79533.8 137774 94773.8
179696 128189 56666.2
185774 120774 37265.8
182951 144109 123942
182774 129594 121774
182515 139815 129385
183986 144774 140774
183427 142889 136446
180054 136774 145774
183699 145073 139547
183970 153774 147774
182155 136286 133857
179834 123774 131774
78387 142626 92169.8
79773.8 133774 87545.8
115872 197666 124388
96773.8 191774 135102
82519 140692 66945
87673.8 122774 59773.8
140235 195987 143637
135774 198002 160774
78242.6 154530 101746
81493.8 146774 115774
112832 197663 140438
106774 188774 157970
179709 136980 144843
174006 128774 155774
100670 191265 131901
87773.8 176774 132898
89857.8 178012 131224
84161.8 168774 127774
181087 130531 132899
175882 122774 143774
107175 191965 104496
101602 193774 117774
79850.2 149330 107780
81597.8 136774 109774
144112 195572 147233
161102 191774 145774
107602 190194 152929
101006 181774 155774
85705.8 131319 61597.4
89449.8 128774 50773.8
178809 174383 115274
181886 168774 128774
107155 189427 155651
115774 193546 164774
180210 125801 132111
178774 113658 118774
86926.2 126021 60466.6
88525.8 115774 72773.8
177916 176445 118529
175258 181774 127774
79986.6 135900 90126.2
85553.8 121774 91773.8
134961 197909 156690
127774 199974 165774
183321 151009 146854
180014 155774 161774
136162 197495 159904
141974 194774 171774
87449.4 123748 59981.8
92329.8 113774 51773.8
181707 168440 127214
183886 162774 134774
88176.6 120951 64252.6
92773.8 109574 63773.8
177054 124229 139687
171238 113774 141774
82697.4 139923 65425
85545.8 140774 53773.8
178350 114069 120542
176774 106254 113774
81073.4 140541 109175
85449.8 136774 118774
173068 116453 140080
169774 106774 134890
88399 177145 132395
89773.8 167774 143026
174533 129794 153102
166774 120234 157774
102033 183067 154306
95617.8 174774 150774
109741 190663 158388
111774 179994 173774
169723 123867 155999
163846 125774 169774
81386.2 148293 114600
85773.8 149774 131942
174164 129080 154972
173774 137774 165970
84523.4 136692 115978
89773.8 126774 122802
101314 182162 155333
101774 168774 164802
179576 154011 160873
176058 155774 172774
100745 176253 157951
96361.8 165774 155774
171787 114577 141266
165326 112774 149774
85618.6 123785 91954.6
93737.8 108774 94773.8
136543 197333 152774
123774 200002 155774
171207 109774 135290
171774 104006 124774
83929 127419 91406.2
88773.8 120774 107954
176753 179063 125623
177774 178774 140810
177989 153473 165613
175026 146774 171774
159308 191565 144724
169258 187774 140774
176865 155905 169975
175890 163774 174774
89462.6 116320 69809.8
96289.8 103774 77773.8
145275 195447 148311
148774 192774 159954
176345 107102 115738
169774 92773.8 110882
91301.8 113277 93928.2
94289.8 107774 85773.8
141204 194245 171335
145866 189774 183774
166877 121042 157173
156774 112774 159950
88440.6 121168 103881
95737.8 110774 110774
183775 152944 147498
181774 167042 151774
165003 126239 167763
160774 132774 181978
93149.4 109545 74110.2
97773.8 98773.8 66809.8
171080 104551 127053
167914 96773.8 120774
176300 155813 171934
171202 151774 182774
85171.8 136749 117935
89477.8 137774 130774
176645 106508 114363
176774 101578 103774
88400.2 135933 125673
95005.8 127774 133774
172731 152985 179522
168774 142774 179962
93565.8 110142 93855
102774 99569.8 91773.8
101655 169431 162680
103494 154774 166774
111365 180883 170765
112774 165774 181954
176182 161413 173334
169814 167774 187774
160564 191711 145459
161774 189386 156774
170643 95399 110165
165366 85773.8 102774
91213.4 117218 106500
93505.8 118774 117774
160887 189788 155276
157774 187774 167898
95333.4 111954 110320
101574 106774 115774
102795 160344 165218
108314 157774 175774
167655 97753.4 122189
159958 88773.8 118774
98107.4 99980.6 68855.8
104250 90773.8 65773.8
180414 165601 151452
176774 176030 154774
98703 109157 113265
104774 101502 108774
169639 107347 134690
162774 98221.8 131774
101507 101269 90759.8
108774 93557.8 85773.8
176917 174328 153737
170774 183990 153774
171661 152137 181798
165774 154774 196866
99950.2 97218.6 67931.4
100318 93773.8 56773.8
168637 91741.4 107357
172774 90773.8 93953.8
169779 167978 184273
162410 175774 191774
93024.2 130222 131344
97457.8 132774 142774
169000 151958 187403
164010 145774 192774
107308 157488 173692
111774 150774 181262
100713 107489 115021
105122 107774 125774
170871 91219 100119
165774 83585.8 92773.8
93895.8 118276 116966
97517.8 118774 127774
144223 191852 175618
153774 185774 177938
103798 92099.4 66949
111774 84129.8 68773.8
165430 87671.4 104605
155774 80997.8 101774
109719 153862 177780
113678 157774 186774
104850 97722.2 88466.2
103662 94773.8 76773.8
175074 177227 153748
171210 181774 163774
102741 107620 119967
112010 99773.8 122774
178246 171012 152869
176774 173290 163774
163216 174369 189329
153958 180774 188774
96305 133205 140891
97773.8 140774 151370
172668 91069.4 94623.8
176774 91773.8 83325.8
109542 85889.4 67065.4
115774 76773.8 61133.8
162652 175352 191040
154774 176774 197890
111157 151700 180217
114774 140222 181774
105169 107147 124273
112774 103774 132890
112490 156600 184075
117546 149774 191774
113689 143665 181307
111774 136774 174862
174885 91449.8 88523
171542 83773.8 80773.8
105136 107586 125324
104774 114774 135974
170976 180599 162525
165958 182774 170774
166170 84973 93513.4
158774 78773.8 83889.8
169470 181251 165000
171814 176774 172774
97215.8 137897 147388
93489.8 149774 146774
113904 79508.6 62913.4
123774 75141.8 67773.8
170997 84485 82133.4
165774 77541.8 76773.8
97606.2 139911 150175
103710 140774 162774
171378 83987.4 81181.8
176774 83565.8 72773.8
116576 150217 189835
120370 139774 192774
112171 137579 174939
111006 131774 167774
112300 104853 132673
119774 103774 141962
114974 141046 181918
120774 131598 184774
111778 100813 122996
121774 94517.8 126774
166325 78148.6 76931
161774 71773.8 71209.8
118775 96406.2 125640
123774 91005.8 119774
111893 137015 174885
118294 127774 175774
119232 142907 191892
125774 140774 200866
103708 155463 166677
106774 145774 169974
114708 105531 137295
115086 111774 147774
118254 104301 140562
124774 98773.8 137882
119318 103932 141542
126774 102774 145958
93870.2 147127 145960
89021.8 153774 139774
123544 91979.4 121358
131774 87545.8 119774
114973 109901 144630
108774 118218 147774
129305 88875.8 120249
132774 83773.8 110898
125004 103739 145822
132774 106774 156030
93583.4 149544 146526
92773.8 157774 147970
127335 104649 148885
123602 110774 156774
131717 87874.2 119774
141774 84285.8 117774
111407 132006 168400
110774 124310 159774
110964 126619 162362
105462 128774 154774
132330 84731 110946
134774 81557.8 102774
132641 84061 110912
142774 81533.8 107774
127116 90055.4 120670
136774 90773.8 129970
102453 163070 164457
98773.8 153774 157986
111168 129097 165139
117774 120774 165322
133499 82667.4 104234
131774 81549.8 92773.8
124413 99824.2 138730
134774 95617.8 138774
124985 109680 155904
126278 114774 165774
125443 114707 164855
124774 120358 173774
126027 114754 165498
133594 112774 166774
140269 220457 28776.6
143774 211986 34773.8
135856 216210 34963
127774 209978 36773.8
143247 214004 34414.6
146774 210062 43773.8
128680 211402 37314.2
121774 207942 40773.8
139222 209653 50615
138774 207918 56773.8
131897 208088 54312.6
124582 203774 58773.8
119898 204964 47861.8
115774 203854 45773.8
139315 207946 56023.8
141774 204774 63293.8
124081 200189 64509
116774 199786 60773.8
152307 203512 58679
157022 199774 60773.8
116517 203699 46504.6
110774 199974 45773.8
132777 201713 68379.4
125494 197774 71773.8
141070 204923 62792.6
142774 200774 71889.8
112515 200848 46928.2
105574 194774 51773.8
156443 199803 60628.2
161982 192774 63773.8
143629 201261 70661
147774 197774 77897.8
105653 190823 63121.4
[...]
CELL_DATA 1581
SCALARS radius float
LOOKUP_TABLE default
2.122e-314
100
100
1.16091
1.15977
0.108481
0.987034
0.841005
0.984722
0.188918
0.98405
0.125005
0.136605
0.834301
0.96121
0.40171
0.782232
0.46562
0.212842
0.956287
0.781793
0.0930657
0.0618971
0.393043
0.715263
0.797902
0.0351029
0.715234
0.139167
0.460398
0.0820892
0.779938
0.787627
0.194906
0.427706
0.244809
0.0708714
0.715002
0.206557
0.773631
0.0772436
0.381578
0.0667088
0.427165
0.768447
0.326586
0.175222
0.366491
0.765742
0.168385
0.710773
0.186131
0.361627
0.137572
0.299951
0.370741
0.348194
0.748904
0.312368
0.154185
0.133313
0.709206
0.626026
0.479688
0.316419
0.22789
0.281079
0.211593
0.215149
0.123337
0.338102
0.178298
0.0863235
0.336216
0.0705892
0.745809
0.264746
0.19578
0.743537
0.155776
0.764784
0.118972
0.453933
0.131526
0.457585
0.70574
0.463802
0.631417
0.45746
0.159224
0.0799041
0.273835
0.356527
0.583732
0.0684154
0.279722
0.474474
0.118468
0.740959
0.162116
0.460584
0.15604
0.0675831
0.347343
0.061834
0.631219
0.176884
0.293194
0.736783
0.18982
0.608454
0.559027
0.5342
0.417579
0.528439
0.169613
0.0832057
0.558412
0.0987951
0.629183
0.0417498
0.356336
0.157376
0.443535
0.383687
0.340437
0.069539
0.456924
0.576678
0.157154
0.0705244
0.414071
0.162251
0.342471
0.243684
0.276697
0.48599
0.387315
0.0903317
0.168266
0.438639
0.216193
0.24156
0.348674
0.319319
0.537671
0.42389
0.203124
0.274354
0.273637
0.0860428
0.317223
0.477739
0.179125
0.214956
0.4046
0.22328
0.211935
0.623479
0.188636
0.286967
0.167634
0.350075
0.471264
0.136066
0.276385
0.0715328
0.212282
0.0827563
0.271091
0.394381
0.169768
0.380122
0.147015
0.0622167
0.154066
0.469244
0.161902
0.428655
0.159609
0.254496
0.337495
0.0787748
0.240908
0.358087
0.288389
0.530549
0.1587
0.252963
0.250587
0.197587
0.336793
0.0868967
0.202449
0.27937
0.129677
0.137309
0.423906
0.063042
0.530252
0.453456
0.164419
0.517683
0.208885
0.171285
0.225443
0.0814646
0.338832
0.304892
0.223159
0.232192
0.295958
0.340395
0.587637
0.173852
0.18046
0.134476
0.449479
0.279359
0.255426
0.340962
0.371255
0.0975617
0.392381
0.0663798
0.239877
0.152732
0.463787
0.318442
0.159197
0.092748
0.254543
0.0887536
0.169121
0.0985715
0.579569
0.0686333
0.349193
0.202137
0.288282
0.127044
0.38789
0.268134
0.170698
0.077224
0.339636
0.41668
0.156452
0.0716566
0.147282
0.116286
0.413639
0.27416
0.264817
0.301978
0.168147
0.139754
0.514265
0.110699
0.235245
0.106246
0.368332
0.0723672
0.277731
0.445883
0.148467
0.566694
0.233237
0.105466
0.272566
0.0772235
0.566215
0.167498
0.499027
0.196028
0.227309
0.355511
0.237693
0.0909569
0.347124
0.557593
0.188902
0.0747953
0.229576
0.268318
0.156488
0.0976463
0.335572
0.0924122
0.270614
0.332351
0.201829
0.397439
0.295748
0.304837
0.187232
0.393544
0.214154
0.175412
0.243402
0.484594
0.146506
0.0796443
0.557051
0.374016
0.218687
0.216178
0.137248
0.185176
0.216463
0.305769
0.201019
0.201312
0.242229
0.408507
0.352305
0.150271
0.251585
0.142318
0.326812
0.458325
0.424656
0.338305
0.145928
0.222344
0.238804
0.155668
0.385252
0.0858619
0.372501
0.136006
0.296523
0.113911
0.211895
0.0940558
0.406838
0.155277
0.452306
0.339049
0.16813
0.269304
0.35752
0.151513
0.357894
0.0666818
0.151064
0.108807
0.299497
0.120772
0.205647
0.16027
0.283343
0.278965
0.318707
0.16304
0.262576
0.215757
0.305958
0.167418
0.257213
0.0981499
0.208762
0.119726
0.296721
0.187842
0.328027
0.447861
0.139268
0.246941
0.164763
0.408896
0.201765
0.128246
0.298255
0.117251
0.405657
0.0724786
0.184174
0.215965
0.252254
0.0820919
0.160649
0.401406
0.293002
0.383505
0.202251
0.0780718
0.382423
0.204683
0.247792
0.389332
0.197803
0.180744
0.268004
0.19319
0.318791
0.109817
0.37938
0.0898506
0.198741
0.165929
0.36849
0.0789656
0.188689
0.102392
0.324667
0.221628
0.241804
0.207498
0.286287
0.083744
0.202848
0.340875
0.268729
0.505239
0.176821
0.292496
0.209526
0.153969
0.232646
0.112846
0.189789
0.341353
0.188397
0.270823
0.271042
0.0980167
0.266474
1.16008
0.149412
0.141929
1.15906
0.0743154
0.143014
0.111549
0.113729
0.221323
0.835865
0.0480776
0.122588
0.110011
0.175561
0.0559823
0.220123
0.959788
0.157865
0.0541707
0.133705
0.15612
0.117104
0.147184
0.395012
0.0591765
0.218688
0.0972187
0.14238
0.0643829
0.128531
0.0757775
0.215612
0.106607
0.203525
0.0672394
0.142349
0.780241
0.092263
0.780671
0.127117
0.38263
0.167493
0.10306
0.197702
0.0587645
0.135583
0.168323
0.154128
0.791585
0.223248
0.457122
0.127419
0.778508
0.101201
0.102826
0.187958
0.114212
0.1475
0.452924
0.137631
0.0992099
0.15602
0.379384
0.0984108
0.105632
0.230107
0.0674403
0.204132
0.176049
0.145019
0.2373
0.10939
0.0402634
0.155121
0.0545245
0.174288
0.0750555
0.220384
0.0500276
0.193801
0.0578754
0.129573
0.176532
0.0982061
0.202882
0.137652
0.125408
0.15048
0.353883
0.143803
0.142807
0.175856
0.74602
0.1532
0.748167
0.107424
0.351734
0.178737
0.0963973
0.172809
0.0769169
0.146443
0.06554
0.146216
0.124185
0.122035
0.0728007
0.13041
0.625069
0.103959
0.0629202
0.11279
0.0956691
0.16909
0.194079
0.28508
0.0608851
0.263668
0.0589649
0.218968
0.114897
0.179603
0.135034
0.25129
0.116094
0.148426
0.0814421
0.173838
0.124828
0.149616
0.0871272
0.111672
0.133776
0.20087
0.450044
0.133587
0.171869
0.169644
0.0606927
0.199005
0.13581
0.146795
0.0984057
0.190638
0.0535156
0.160148
0.457791
0.120889
0.144274
0.469985
0.13456
0.581339
0.0406345
0.211436
0.114139
0.153118
0.0992966
0.16577
0.135058
0.164664
0.150794
0.320036
0.11745
0.198591
0.0809257
0.120399
0.151711
0.278976
0.17335
0.150851
0.126772
0.125977
0.0710156
0.249385
0.0822087
0.123438
0.205212
0.235555
0.629994
0.113494
0.129693
0.237098
0.135018
0.268816
0.0710446
0.269454
0.2482
0.150986
0.0802638
0.135467
0.141334
0.231873
0.119405
0.161801
0.107506
0.262958
0.148153
0.151257
0.557083
0.107441
0.105692
0.575492
0.135701
0.237236
0.414752
0.113673
0.159088
0.241908
0.435907
0.116148
0.475582
0.113701
0.106497
0.224129
0.051849
0.146005
0.57286
0.137565
0.0547179
0.167694
0.125
0.180482
0.177065
0.198323
0.063342
0.176445
0.103047
0.536406
0.251198
0.174719
0.0646488
0.138385
0.0624651
0.131528
0.116756
0.135256
0.337567
0.157718
0.150313
0.170822
0.0913327
0.168563
0.126012
0.130899
0.0534664
0.154342
0.243147
0.121916
0.0985803
0.165526
0.142558
0.222966
0.0842942
0.137127
0.0938814
0.136953
0.125928
0.236438
0.46055
0.145567
0.0607255
0.131046
0.198268
0.19951
0.172007
0.255684
0.0858483
0.129151
0.176905
0.129617
0.093532
0.160912
0.066673
0.195722
0.331188
0.110165
0.153426
0.137629
0.0601781
0.161687
0.106521
0.188826
0.171746
0.58164
0.0906057
0.218065
0.115838
0.15233
0.114902
0.150013
0.258583
0.156356
0.318197
0.181561
0.0791833
0.234727
0.124377
0.127504
0.0607988
0.168692
0.067189
0.168248
0.0985992
0.179402
0.0884331
0.19633
0.183892
0.127629
0.24602
0.167189
0.135715
0.242244
0.156102
0.174466
0.151274
0.19997
0.115697
0.208435
0.121201
0.235796
0.11839
0.232426
0.0947597
0.157564
0.0712627
0.133283
0.072547
0.151822
0.229246
0.204756
0.156695
0.184253
0.114874
0.164719
0.512358
0.114679
0.451304
0.198661
0.285002
0.163716
0.117361
0.246884
0.326766
0.233472
0.100219
0.2296
0.176857
0.191513
0.174753
0.187873
0.100737
0.149864
0.175457
0.245786
0.116492
0.172802
0.104542
0.188501
0.0638434
0.13248
0.129959
0.214758
0.564729
0.11256
0.0583136
0.212703
0.146117
0.207453
0.160169
0.179468
0.092816
0.198191
0.106765
0.131664
0.162612
0.216304
0.0819184
0.196377
0.0923152
0.194622
0.0848474
0.146766
0.138481
0.193537
0.481883
0.123846
0.290875
0.154902
0.281771
0.151785
0.128359
0.182782
0.168564
0.223301
0.0988277
0.178972
0.0944618
0.162829
0.180041
0.203091
0.378167
0.145757
0.139056
0.178504
0.30421
0.189016
0.0617034
0.199823
0.338204
0.157542
0.112729
0.196808
0.134905
0.164234
0.489017
0.194242
0.0756486
0.162102
0.124997
0.162643
0.177996
0.257673
0.200932
0.313673
0.066407
0.134041
0.0917444
0.158481
0.216674
0.199426
0.185232
0.220093
0.347393
0.155697
0.158967
0.222675
0.287605
0.204743
0.110008
0.189277
0.0699402
0.160451
0.127969
0.246691
0.150617
0.226344
0.118529
0.20334
0.146037
0.169437
0.196989
0.193134
0.111048
0.193218
0.23183
0.241426
0.117067
0.211321
0.108593
0.210902
0.192233
0.207605
0.0562555
0.196274
0.0908645
0.172741
0.150672
0.251084
0.111657
0.183404
0.115732
0.242605
0.172417
0.209185
0.3595
0.152885
0.168285
0.217984
0.130005
0.149347
0.141987
0.22424
0.253247
0.193297
0.247297
0.162393
0.145532
0.193771
0.0991421
0.17876
0.214732
0.215519
0.20572
0.216981
0.0669489
0.0992114
0.0604472
0.107726
1.15889
0.0868766
0.0794329
0.134329
0.096855
0.0977379
0.83552
0.0896986
0.0551777
0.112869
0.0968017
0.144659
0.0814985
0.834042
0.833756
0.0841586
0.206628
0.106308
0.0579318
0.141493
0.393554
0.0879475
0.0767061
0.13354
0.0455028
0.0892886
0.956069
0.0842286
0.464598
0.0871858
0.0533249
0.16652
0.0992876
0.123979
0.128608
0.135543
0.0546564
0.132514
0.797461
0.0944554
0.779078
0.116178
0.0558428
0.109576
0.0871858
0.112029
0.0695127
0.107208
0.0875988
0.144052
0.0682285
0.12956
0.0844385
0.13763
0.124723
0.167508
0.222121
0.106999
0.0919999
0.131446
0.0960196
0.119855
0.182279
0.106926
0.0941786
0.11025
0.0704293
0.113653
0.068126
0.131848
0.296478
0.0974899
0.324419
0.0883029
0.773197
0.0919853
0.368146
0.102044
0.12029
0.154638
0.708549
0.0996705
0.0918877
0.142433
0.111275
0.155813
0.101829
0.280682
0.0926791
0.127926
0.0870937
0.132251
0.476923
0.12381
0.074265
0.114173
0.0980686
0.141608
0.276084
0.102248
0.0880268
0.138679
0.330827
0.12161
0.112554
0.200395
0.0672785
0.110742
0.100877
0.128342
0.313251
0.126842
0.138853
0.17512
0.0906477
0.117905
0.138117
0.140058
0.175248
0.128504
0.0940164
0.165577
0.136536
0.139385
0.102312
0.141818
0.112227
0.139143
0.466478
0.13212
0.0705388
0.176816
0.0822733
0.120492
0.580542
0.0930873
0.0963535
0.158577
0.0611494
0.118108
0.112848
0.132818
0.0912751
0.124579
0.181087
0.0965922
0.265579
0.121684
0.45549
0.0963906
0.158442
0.210679
0.345214
0.091492
0.124169
0.180554
0.153683
0.211347
0.111945
0.133821
0.0976778
0.155242
0.138142
0.18866
0.111143
0.107155
0.100891
0.134508
0.120797
0.197277
0.0770332
0.143982
0.4389
0.139373
0.126598
0.130194
0.140726
0.114073
0.207651
0.104802
0.212172
0.166371
0.329133
0.113637
0.0669147
0.127994
0.181568
0.174056
0.0759484
0.131409
0.411934
0.103026
0.354203
0.0931186
0.142937
0.12154
0.123728
0.153741
0.535241
0.100134
0.467161
0.139419
0.165658
0.179912
0.0954509
0.157333
0.465347
0.10575
0.143174
0.121097
0.0942827
0.131508
0.0993729
0.339659
0.0573347
0.125828
0.114684
0.156393
0.134695
0.127884
0.333588
0.127314
0.120483
0.198339
0.121964
0.122599
0.0909867
0.166111
0.0612791
0.135356
0.52878
0.107391
0.335202
0.10735
0.130904
0.17385
0.0500476
0.128413
0.152693
0.195955
0.289454
0.118686
0.183189
0.150645
0.08087
0.167811
0.58659
0.102708
0.099102
0.162375
0.118808
0.164735
0.228739
0.122425
0.0601804
0.147373
0.0976086
0.15599
0.133445
0.118365
0.0791349
0.160176
0.108227
0.143569
0.118952
0.180095
0.0731284
0.166102
0.580518
0.104386
0.0900884
0.172043
0.0887854
0.1336
0.0905585
0.145199
0.109611
0.151591
0.219698
0.132544
0.10954
0.174536
0.274272
0.149271
0.102404
0.137556
0.165596
0.177598
0.11091
0.178212
0.0674715
0.164445
0.135491
0.169171
0.0930463
0.221989
0.13642
0.252154
0.0923758
0.165445
0.130745
0.174708
0.148338
0.137731
0.0677898
0.159539
0.362455
0.133023
0.214647
0.146263
0.163518
0.153604
0.095272
0.158432
0.161361
0.188876
0.0932766
0.153762
0.0809096
0.139982
0.190241
0.1399
0.108445
0.245282
0.145374
0.228789
0.150009
0.210677
0.136052
0.166445
0.0513656
0.209654
0.0974693
0.163671
0.141038
0.21028
0.0642576
0.152789
0.0776517
0.13884
0.121763
0.234842
0.192466
0.169227
0.139838
0.186442
0.0772533
0.188923
0.104218
0.175783
0.125604
0.168351
0.152575
0.187279
0.15659
0.155133
0.15996
0.206915
0.0934303
0.187162
0.366726
0.133272
0.118599
0.147302
0.349235
0.148085
0.402545
0.128243
0.282049
0.15375
0.202745
0.17418
0.303081
0.144581
0.152436
0.196545
1.13058
0.0995827
1.13033
0.146968
1.1291
1.07922
0.233159
0.548458
1.08354
0.117608
0.54665
1.07437
0.24272
0.15014
0.542848
0.98596
0.655502
0.0938344
0.985676
0.130063
0.540348
0.112094
0.985193
0.122529
0.654072
0.98312
0.181926
0.130332
0.537809
0.151454
0.533775
0.115577
0.982588
0.142282
0.65182
0.146439
0.530075
0.108728
0.65081
0.321227
0.487411
0.0942079
0.982299
0.121909
0.649381
0.0952807
0.318408
0.116628
0.981751
0.370344
0.402072
0.0809848
0.176411
0.0898282
0.368573
0.14187
0.647116
0.14466
0.308126
0.934554
0.506597
0.0994585
0.934179
0.297165
0.287757
0.232592
0.374246
0.125583
0.369471
0.225069
0.261359
0.492614
0.218773
0.131406
0.933311
0.181145
0.272783
0.14618
0.488286
0.172227
0.265518
0.123729
0.645605
0.296788
0.923198
0.106477
0.292148
0.84407
0.570289
0.259956
0.462375
0.198547
0.349275
0.207245
0.252161
0.1782
0.641047
0.150492
0.241921
0.259654
0.292805
0.116538
0.243575
0.112982
0.208228
0.137175
0.458315
0.102446
0.640174
0.62623
0.255979
0.101022
0.843588
0.122486
0.568399
0.172456
0.563058
0.316209
0.598112
0.181889
0.44856
0.12376
0.842699
0.235405
0.425814
0.142157
0.560021
0.0911257
0.313666
0.173355
0.416013
0.162792
0.840669
0.519401
0.328697
0.79688
0.444946
0.129131
0.596099
0.13673
0.516223
0.130431
0.244153
0.21773
0.273857
0.126197
0.264616
0.146275
0.512278
0.116142
0.796056
0.135923
0.440677
0.155017
0.316777
0.129628
0.794909
0.168508
0.591576
0.383198
0.427571
0.274308
0.329054
0.20977
0.282551
0.17656
0.43102
0.170982
0.418256
0.242977
0.388912
0.330361
0.555022
0.143342
0.793352
0.201532
0.301634
0.0804905
0.32876
0.36237
0.319094
0.149782
0.35363
0.240431
0.785922
0.114067
0.231548
0.754452
0.382611
0.229864
0.285977
0.231324
0.747132
0.221662
0.363254
0.168397
0.549806
0.123814
0.37824
0.176065
0.300121
0.171441
0.406072
0.107578
0.746388
0.209664
0.327127
0.18384
0.542867
0.237847
0.527201
0.222671
0.3824
0.627905
0.552057
0.179908
0.364154
0.282982
0.294834
0.109203
0.626802
0.183535
0.54521
0.512992
0.480964
0.208214
0.516145
0.189378
0.50424
0.324832
0.454575
0.141826
0.476817
0.194539
0.536826
0.251858
0.452139
0.209515
0.504371
0.435778
0.415917
0.151317
0.42961
0.180101
0.444949
0.175569
0.443137
0.335528
0.36918
0.201365
0.493437
0.285251
0.382769
0.253491
0.381809
0.23589
0.419631
0.292383
0.456525
1.12993
0.11478
1.12849
0.132667
1.08284
0.135213
1.07849
0.137096
0.157601
0.183173
0.0772615
0.178472
0.141563
0.225471
0.215877
0.137768
0.0843471
0.221466
0.175797
0.175758
