# vtk DataFile Version 3.0
Tree
ASCII
DATASET POLYDATA
POINTS 1582 float
162774 225274 273.8
162774 225274 10273.8
141774 225774 23773.8
135774 212774 31961.8
137574 216674 29505.4
144774 209774 52789.8
136314 213944 31225
120774 205774 48965.8
125436 208225 43643.4
130774 201774 66805.8
144990 208622 50708.2
153774 197774 71965.8
121331 205549 47484.6
107774 195238 57773.8
111841 198331 54687
115774 193194 74773.8
130333 201653 66557.8
133774 195814 85773.8
152980 199191 64498.6
170066 180774 71773.8
163573 187772 69009.4
169290 184774 91773.8
108353 195206 57072.6
94773.8 181974 65773.8
112577 193969 69003.4
102774 185890 83773.8
130749 197332 80308.2
120774 192062 94773.8
167414 182103 69787.8
174774 164774 67657.8
133071 196614 85366.2
139774 195998 102774
172566 169973 68296.6
171910 158774 53773.8
169371 177493 69221
180002 167774 87773.8
177101 171098 85144.6
179782 172774 104774
95965.4 182232 64949.4
83509.8 167774 72773.8
174101 165325 68279.8
178014 149774 69773.8
87706.2 173114 71855.4
82345.8 169774 85773.8
122767 193766 93388.2
115774 194070 112774
172162 158997 55901
172062 146774 44773.8
120110 193881 100755
129774 195998 111774
139314 195951 95428.6
157078 193774 103774
179131 168771 86985
182002 152774 83773.8
177205 151873 68670.6
179782 134774 64773.8
178977 172271 98885
183998 156774 110774
85096.2 168537 71605.4
79553.8 153774 67773.8
85130.6 172579 81889
85773.8 179550 100774
85581 177459 95108.2
98773.8 187774 100578
116668 195031 111766
112774 197774 126346
127165 195535 110821
129774 196774 126222
150328 194601 100603
151774 195978 116774
150403 195609 114367
144774 195998 130774
153679 197710 71425.4
155082 193774 86773.8
155969 193363 103924
166034 188774 112774
83055.8 170029 85581.8
75681.8 159774 100774
178803 141271 66254.6
183998 129774 79773.8
179200 136127 64269
179194 120774 55773.8
181277 157113 86297.8
183998 143774 93773.8
182391 157533 109209
183998 141774 118774
183516 157001 110305
183998 155774 132774
179197 127837 59681.4
177258 127774 43773.8
81216.6 158203 68923.4
77549.8 146774 79773.8
80052.6 155103 68118.6
83493.8 136774 65773.8
183564 145749 118151
183998 139774 132774
145735 195878 129724
141774 196014 145774
85535.4 178810 100124
84773.8 181886 116774
78537.4 149720 78944.2
77533.8 145774 94773.8
113659 197173 125129
111590 198774 145774
148629 195711 120203
159074 193774 130774
142167 196320 135884
127890 198774 142774
78419.4 146477 93628.2
79549.8 143774 108774
79210.6 144585 104230
79489.8 154774 112774
110115 196886 134233
102774 194774 139946
85931.4 182020 112979
91573.8 188774 121774
183303 140407 130646
179874 132774 145774
179475 172278 104342
180062 170774 119774
155941 194355 127603
169258 187774 126774
183819 155509 131929
183774 153774 149018
183444 143291 123899
181962 126774 125774
85121 181926 115635
86773.8 175774 129322
77846.2 147657 79525
81557.8 131774 79773.8
141494 196343 145344
139018 197774 161774
83591 138643 64844.2
87773.8 122502 59773.8
111147 198207 142311
106774 188774 157970
86277.8 177619 125216
83637.8 168774 126774
181177 135675 140025
176774 122258 139774
158134 193948 129823
162026 190774 144774
89429.8 186207 118431
99773.8 192022 115774
179580 133741 145149
173774 130774 158970
140553 196887 151587
127774 200002 156774
104976 195407 138232
95461.8 188774 134774
80538.2 136493 81226.6
83553.8 125774 90773.8
107325 190955 152069
99773.8 180774 154970
86519 127344 61295
90161.8 123774 48773.8
183434 157728 122469
181998 166774 130774
85640.6 130734 62359.8
88525.8 115774 72773.8
106939 189428 156200
115774 193014 166774
181776 129104 124427
177774 111562 119774
79448.2 144017 107411
83773.8 132750 112774
177353 123896 138454
173810 112774 134774
87678.2 123329 60689.4
91661.8 110774 60773.8
176779 131335 150088
170774 122274 153774
79519.4 143847 108365
83773.8 144774 124794
139721 197254 160563
141082 195774 172774
182668 154329 147727
179774 153774 163938
101901 184032 152300
91773.8 172774 144806
173885 130645 157549
168774 128774 165946
82529.4 143581 65826.6
86773.8 139594 50773.8
141690 196113 145645
152774 193774 150802
84122.2 126404 88558.6
89029.8 115774 93773.8
85524.2 171605 127379
87493.8 156774 136774
175217 130962 154117
176774 140230 161774
100988 181156 153927
99485.8 169774 158774
176290 120559 137350
167950 112774 145774
89829.4 116549 60735
94773.8 109774 46225.8
113123 191938 163601
114774 183774 175242
178237 113591 118651
175998 103774 111774
83724.2 125963 90109.4
85701.8 123774 103774
165537 189097 128464
175974 180774 136774
169099 128439 164215
161238 122774 169774
89456.2 116564 71394.6
94321.8 105774 76773.8
112055 198579 144994
116774 199774 154798
179428 154467 162521
176058 155774 172774
82157 144421 118551
88773.8 131774 125166
141512 195452 169060
147558 189774 176774
173495 113476 135078
166774 102774 131978
84458.6 169184 126571
81549.8 159774 122774
183474 155155 136669
182058 164774 142774
88947.8 116935 92105
94345.8 107774 93773.8
114279 186223 171750
108774 174774 171974
166741 126739 165882
160774 116206 159774
89005.4 116122 93273
93569.8 112774 105774
149449 194475 149255
149774 192774 159170
167448 127249 165382
161974 130774 177774
91698.6 111717 61317
97553.8 99773.8 64773.8
145744 191477 174460
143262 191774 185774
165806 128307 169099
169774 138774 174970
88926.2 132502 124763
93705.8 124774 128774
177207 109075 115487
169890 98773.8 120774
176923 156717 170165
173810 165774 179774
109135 175637 171014
103774 164774 168802
175964 104085 111797
173422 95773.8 104774
176317 156057 171991
170774 149774 181966
104897 166010 168382
101658 156774 164774
167849 113802 145432
160442 109774 151774
93788.2 109372 92623.4
100774 101518 88773.8
149598 193693 153816
159774 189942 158774
94178.6 108253 93428.6
99505.8 104774 101774
182133 163297 142385
179866 172774 151774
93846.2 112165 103764
99773.8 106774 112882
108882 175033 171686
112534 166774 181774
171735 101119 118100
164774 89773.8 114890
93652.6 112591 105171
92125.8 119774 116774
166653 92519.4 114620
164774 87505.8 106774
173116 164275 179274
167774 170774 188970
96812.2 101739 63280.6
103550 90773.8 60773.8
162584 130824 177423
159774 133774 186434
92271.8 127092 127571
97773.8 126774 138970
162354 190791 141577
171878 184774 150774
171851 151991 180646
167774 153494 191774
111146 169912 177940
109486 157774 176774
170709 150102 181887
165774 142774 186970
144475 192670 172840
155774 187774 169938
99867.8 102627 90233
107774 94289.8 91773.8
179268 172179 150921
175786 178774 156774
104137 98124.6 91065
107670 92773.8 82773.8
166845 103662 132665
161266 96773.8 131774
99293.4 107159 110545
107774 99129.8 113774
109527 158485 175945
108122 148774 173774
174157 97317.8 105005
173774 90773.8 92881.8
99629.8 106889 112181
104514 107774 124774
173889 92737 96518.6
165774 83773.8 94097.8
93275.8 125469 128413
98001.8 115774 124774
164301 88018.2 108052
157774 81497.8 100774
102095 93911.4 62771
109998 85773.8 68773.8
167523 170094 187087
160774 175774 193326
97133.4 127436 138122
101774 128774 148970
94888.2 105447 61245.4
98773.8 97577.8 54773.8
109498 157987 176525
114358 151774 186774
169123 168947 183291
161774 179774 183970
99267.8 128051 143112
97461.8 138774 148774
105960 94786.6 84555.8
104290 93773.8 74773.8
112123 154632 182059
113590 142774 181774
161616 174839 191284
153774 180050 190774
176024 177273 156481
170774 180774 165970
104351 106938 122214
112774 103510 130774
107476 88013 65212.6
116262 76773.8 61773.8
173683 90917.8 93081
172774 85773.8 83133.8
172349 179724 163123
166774 185774 162810
108810 150136 174360
110326 139774 173774
167265 85607 93586.2
160774 79581.8 85773.8
113687 152631 185359
117598 157774 192774
97581.8 126972 138715
102774 118774 137978
173602 165324 179624
173842 171774 173774
97403.4 137419 147105
93561.8 149774 147774
162721 81389.4 88117.4
166774 79457.8 78773.8
97444.2 138367 148273
103682 137774 159774
109573 104813 127521
117774 96345.8 124774
113825 147145 183017
119774 137578 189774
113626 80145.4 62805.4
124774 75773.8 69137.8
116425 156231 190549
121574 150774 198774
110526 140798 173121
112774 131590 170774
111981 104211 130531
118774 103774 140886
117037 141979 186665
118774 132774 181978
95943.8 142114 147359
89773.8 146774 139250
164935 79233.4 81064.2
163774 73025.8 71773.8
173770 169839 175529
169014 177774 176774
169221 176331 176298
161326 182774 175774
120631 151049 196693
124774 142214 199774
117110 97686.6 124533
124774 91457.8 120774
116736 103905 137779
114774 110254 145774
118498 133902 181741
119774 126282 175774
115310 103997 135605
124774 98773.8 137882
121177 100759 137017
124774 95457.8 130774
118878 103821 140514
125774 103710 147774
123721 92021.8 120297
129774 86353.8 114774
114548 108945 142976
108254 116774 145774
124687 104323 147183
129774 105774 153962
93914.2 148825 147242
91485.8 157774 144774
128377 88569.8 117569
138386 84773.8 117774
111313 113967 145719
110774 120774 153978
132981 86823.8 117663
136774 81773.8 108890
101797 128509 148621
106774 128278 157774
127853 106062 152543
128774 111458 160774
134726 84500.6 113627
128346 83773.8 104774
129758 88046.2 117597
136774 89773.8 129078
137037 82417.4 109692
143774 79553.8 102774
99355.4 171867 156905
95657.8 162774 154774
119149 127492 175845
117774 120230 164774
130260 83991.8 107430
134774 81485.8 95773.8
118074 120445 165191
117666 114774 156774
118396 122559 168387
124774 116774 165982
119587 126645 175795
126226 120774 175774
124145 117916 167022
132578 113774 168774
136692 214763 30709
129118 212190 30497.8
138375 212676 41210.6
135774 211182 46773.8
128762 210280 36752.6
121774 207394 36773.8
129506 206358 53099.4
135774 207190 57773.8
128285 206918 50262.6
123774 203842 57773.8
147387 205793 54845.4
143774 205262 61773.8
122563 206351 46332.2
113774 202774 45149.8
124097 203687 57082.6
119774 199774 63889.8
130641 201738 66731.4
138386 202774 67773.8
137976 202162 67801
145774 201774 69061.8
121437 200304 63359
120774 197194 69773.8
153745 197755 71803.8
159954 192774 75773.8
[...]
CELL_DATA 1581
SCALARS radius float
LOOKUP_TABLE default
2.122e-314
100
100
1.16032
1.00055
0.824155
0.0591842
1.00023
0.765206
0.820274
0.0683091
0.822374
0.0616999
0.819352
0.807865
0.27516
0.150147
0.759207
0.222253
0.815565
0.189261
0.811457
0.0548603
0.807202
0.0995754
0.263882
0.577863
0.624198
0.0795022
0.80925
0.060018
0.577647
0.368074
0.234506
0.397405
0.775953
0.254783
0.765634
0.804039
0.150381
0.0622691
0.354911
0.754217
0.449403
0.622058
0.135584
0.18746
0.17087
0.179139
0.617066
0.569026
0.176585
0.145779
0.237763
0.129749
0.346069
0.197145
0.760358
0.21505
0.748344
0.172966
0.435874
0.386274
0.211446
0.111276
0.609824
0.0903921
0.171113
0.271618
0.5476
0.0827066
0.538521
0.107404
0.213556
0.0677835
0.270204
0.0609423
0.170406
0.194562
0.320448
0.0800933
0.313447
0.140056
0.213597
0.529727
0.660605
0.0581709
0.529493
0.272022
0.220133
0.4173
0.701462
0.0670601
0.416722
0.656844
0.155297
0.445309
0.152564
0.110039
0.383274
0.596893
0.508646
0.0709763
0.608685
0.4512
0.400661
0.428376
0.213235
0.0725336
0.502727
0.495835
0.156135
0.590843
0.247814
0.338463
0.245572
0.544391
0.132363
0.0607264
0.195206
0.319056
0.300293
0.0657804
0.521384
0.489147
0.549978
0.0750367
0.337229
0.0615366
0.596675
0.404448
0.231773
0.077976
0.402684
0.209628
0.581913
0.280187
0.253833
0.448454
0.414368
0.146732
0.308356
0.114337
0.228284
0.432306
0.126031
0.371277
0.246509
0.0896084
0.243845
0.0954844
0.594994
0.547846
0.311925
0.131118
0.375391
0.523362
0.172099
0.380649
0.21647
0.54168
0.176402
0.132133
0.481189
0.476378
0.239834
0.0913327
0.408742
0.0737207
0.37444
0.407925
0.234609
0.0542361
0.476143
0.148155
0.363241
0.133494
0.469973
0.257216
0.226547
0.0855451
0.37842
0.403656
0.175962
0.0479369
0.231088
0.236623
0.580352
0.171138
0.257046
0.379872
0.235514
0.0854066
0.254039
0.24012
0.379009
0.174879
0.361267
0.10129
0.540497
0.0909743
0.478117
0.0617687
0.235212
0.27136
0.175918
0.0962082
0.376336
0.0990151
0.203039
0.066724
0.20735
0.139858
0.461858
0.111607
0.468824
0.318616
0.200634
0.36162
0.139017
0.088891
0.162738
0.315352
0.478029
0.548163
0.303158
0.173313
0.53449
0.143411
0.257715
0.0602257
0.54792
0.113618
0.221544
0.27174
0.321509
0.351626
0.126789
0.222462
0.22121
0.166963
0.30574
0.0715243
0.463167
0.415254
0.335284
0.343992
0.373618
0.237485
0.516362
0.0580314
0.414876
0.0788311
0.342606
0.100511
0.231326
0.170522
0.20713
0.17104
0.275376
0.134435
0.203634
0.0670361
0.167536
0.128878
0.308007
0.175447
0.540726
0.0604687
0.516085
0.11407
0.325771
0.0650454
0.172415
0.1199
0.320265
0.318519
0.260152
0.104008
0.314729
0.176179
0.231537
0.182338
0.453549
0.107398
0.27066
0.218232
0.288023
0.508942
0.157664
0.0737526
0.215387
0.279498
0.219049
0.261304
0.144873
0.0862496
0.298922
0.230784
0.17705
0.331704
0.220988
0.526861
0.228001
0.4826
0.268829
0.146467
0.404144
0.0677287
0.521603
0.289972
0.329324
0.149594
0.139497
0.175763
0.301546
0.286879
0.175338
0.27398
0.180041
0.420279
0.242127
0.326062
0.20653
0.0627227
0.482247
0.29777
0.180828
0.40056
0.2152
0.180947
0.185347
0.279094
0.441394
0.148562
0.258569
0.284712
0.153698
0.0979059
0.520451
0.252009
0.196655
0.06621
0.288817
0.176945
0.242913
0.220906
0.205261
0.119757
0.323958
0.104545
0.274116
0.0652017
0.240541
0.076369
0.257939
0.301169
0.33308
0.145057
0.313959
0.0840481
0.298971
0.404918
0.420935
0.428111
0.174201
0.168874
0.223663
0.130852
0.263793
0.123469
0.207218
0.136579
0.399671
0.147408
0.422204
0.253323
0.25218
0.224319
0.269892
0.127563
0.233904
0.135501
0.217642
0.151504
0.220021
0.0927818
0.414827
0.341655
0.240773
0.401332
0.219803
0.3776
0.197046
0.140414
0.169645
0.0701441
0.340667
0.0948651
0.408121
0.127835
0.228106
0.174847
0.324565
0.199188
0.202903
0.13066
0.396785
0.157529
0.199665
0.151392
0.330096
0.0810838
0.179018
0.134843
0.300477
0.224563
0.291006
0.340386
0.284514
0.12091
0.212213
0.114687
0.195246
0.367377
0.246938
0.154831
0.275595
0.243665
0.230233
0.298777
0.284025
0.0907841
0.242778
0.16952
0.262272
1.0003
0.0900996
0.128899
0.82282
0.999993
0.0897002
0.761159
0.0924275
0.761613
0.184509
0.115743
0.82128
0.819468
0.117563
0.057301
0.182648
0.0356018
0.149477
0.0611951
0.145977
0.0798588
0.17741
0.039034
0.105657
0.0992872
0.128703
0.758374
0.0951631
0.0826903
0.171208
0.0969302
0.180376
0.807287
0.104201
0.103792
0.20505
0.21559
0.141432
0.234223
0.176791
0.574639
0.127256
0.809506
0.132012
0.100313
0.775394
0.090805
0.172353
0.0808834
0.120997
0.0851075
0.169956
0.774925
0.094534
0.0552787
0.13588
0.0609613
0.131345
0.192085
0.143145
0.134653
0.145256
0.355549
0.170071
0.352045
0.102421
0.226217
0.10969
0.0839104
0.124246
0.44477
0.140579
0.611057
0.189432
0.0871366
0.121189
0.101253
0.12028
0.105133
0.177957
0.539171
0.184805
0.0538203
0.21392
0.119589
0.197837
0.0647861
0.124125
0.0894342
0.759314
0.0914431
0.125626
0.0606069
0.175582
0.0544548
0.106747
0.0858654
0.168451
0.406334
0.250513
0.187664
0.126249
0.0872932
0.111752
0.0899494
0.172129
0.17734
0.160929
0.130989
0.159584
0.0769898
0.210543
0.0521833
0.143515
0.258817
0.133707
0.747591
0.108113
0.0793773
0.134916
0.137116
0.134483
0.0705827
0.242529
0.700856
0.0963512
0.390523
0.114089
0.414508
0.104684
0.138913
0.143042
0.102347
0.154778
0.605031
0.139086
0.130558
0.166205
0.246788
0.13213
0.128962
0.141005
0.0891991
0.268787
0.0872869
0.231879
0.0830309
0.146944
0.393742
0.148503
0.125696
0.122101
0.11468
0.261639
0.127734
0.174728
0.50323
0.160815
0.131004
0.203433
0.209187
0.149088
0.10697
0.229585
0.145973
0.185112
0.107213
0.163177
0.127324
0.251176
0.120116
0.134366
0.118185
0.242132
0.0696992
0.132988
0.065794
0.126706
0.484487
0.14908
0.0988426
0.580961
0.294053
0.118239
0.607471
0.110408
0.0711415
0.124867
0.195032
0.131559
0.500943
0.110466
0.435847
0.194821
0.130673
0.160666
0.158833
0.172655
0.0585432
0.121672
0.179955
0.182406
0.0648455
0.128185
0.276183
0.189883
0.470923
0.152
0.211984
0.176019
0.0852654
0.250585
0.0695296
0.142864
0.221904
0.168781
0.368343
0.164709
0.151214
0.211574
0.137213
0.146656
0.0614544
0.17388
0.127651
0.221267
0.148221
0.155088
0.0923109
0.17712
0.115992
0.140393
0.0957879
0.200299
0.148266
0.127833
0.0923725
0.193524
0.357037
0.117854
0.100725
0.179922
0.11188
0.221412
0.0597036
0.135245
0.0599502
0.122154
0.0649007
0.147119
0.157885
0.190354
0.200395
0.141061
0.343191
0.13773
0.577475
0.142477
0.153014
0.219256
0.135945
0.219329
0.176204
0.176047
0.0651552
0.198317
0.159768
0.183286
0.145963
0.214419
0.0941875
0.213379
0.0843337
0.195287
0.0734208
0.204008
0.0678588
0.134316
0.0970724
0.137455
0.245703
0.172678
0.0815085
0.330056
0.31847
0.133243
0.0750258
0.168494
0.189544
0.279223
0.305972
0.11946
0.116129
0.190603
0.452835
0.17823
0.127156
0.212319
0.308678
0.187042
0.324869
0.180982
0.532591
0.117488
0.064622
0.123218
0.0998216
0.181478
0.114437
0.46654
0.0745271
0.13973
0.0756552
0.1539
0.0947702
0.176807
0.211793
0.196751
0.463735
0.122108
0.143563
0.18702
0.295816
0.125479
0.131301
0.170816
0.101244
0.17938
0.0852538
0.207285
0.0846906
0.168948
0.0609546
0.135505
0.0726341
0.171963
0.158696
0.203134
0.16104
0.179832
0.182837
0.239371
0.169012
0.267147
0.0883765
0.147804
0.12238
0.302128
0.521983
0.159064
0.172434
0.183157
0.070585
0.139057
0.410457
0.131182
0.100628
0.172414
0.192802
0.228297
0.44552
0.169476
0.10701
0.211493
0.163983
0.195246
0.391701
0.18081
0.0800822
0.169583
0.115064
0.147856
0.170471
0.17712
0.107604
0.168907
0.198037
0.218635
0.0767434
0.219375
0.475832
0.164068
0.263127
0.170497
0.270869
0.147445
0.416368
0.133912
0.160198
0.256112
0.0964542
0.158347
0.20001
0.180865
0.0964826
0.212969
0.182364
0.140011
0.10882
0.188638
0.318449
0.167016
0.0643073
0.131651
0.0938457
0.238152
0.155106
0.284352
0.117579
0.159217
0.24175
0.1617
0.126361
0.245419
0.158005
0.212253
0.124533
0.210716
0.169662
0.214708
0.3947
0.132997
0.216705
0.211663
0.239033
0.21055
0.18421
0.194928
0.166689
0.225101
0.409822
0.136666
0.080611
0.216128
0.165158
0.177481
0.0809807
0.20097
0.132105
0.201939
0.113928
0.214919
0.140637
0.174738
0.0830077
0.168374
0.401452
0.14855
0.309269
0.166428
0.0719459
0.176988
0.1844
0.154612
0.235494
0.241409
0.0903261
0.196752
0.152803
0.211733
0.164812
0.264736
0.0895005
0.225633
0.133183
0.18191
0.158519
0.244246
0.124316
0.194981
0.15692
0.220404
0.19972
0.234926
0.19299
0.192396
0.164521
0.212649
1.16013
0.0918083
0.823873
0.0831173
0.0891049
0.112772
0.0713142
0.102329
0.822531
0.0837004
0.0907464
0.0929576
0.095281
0.0912513
0.822045
0.0873581
0.0864746
0.81903
0.82103
0.0796401
0.818368
0.110015
0.0831393
0.272607
0.0721688
0.0985
0.758873
0.0832511
0.814875
0.111235
0.268526
0.0964103
0.810674
0.115613
0.0699078
0.806233
0.806408
0.115728
0.0984161
0.159598
0.0662327
0.102782
0.0723007
0.105432
0.0688835
0.106808
0.135373
0.166388
0.805789
0.0953424
0.138863
0.0897553
0.120689
0.149806
0.0969977
0.124213
0.576712
0.0977585
0.76475
0.0911845
0.106826
0.15453
0.0852193
0.132272
0.106735
0.122735
0.107816
0.135809
0.155474
0.105102
0.0796527
0.125982
0.0969871
0.154587
0.066696
0.184603
0.0524741
0.11945
0.121772
0.131202
0.062486
0.12645
0.759728
0.102986
0.145759
0.123684
0.108815
0.171026
0.111336
0.153579
0.232032
0.0982618
0.75882
0.094916
0.342765
0.105552
0.0563035
0.12765
0.189608
0.110447
0.201357
0.105345
0.177658
0.120684
0.119791
0.169736
0.244506
0.103354
0.127829
0.12763
0.0569612
0.122259
0.0514482
0.106155
0.31518
0.116865
0.100843
0.110924
0.609006
0.0969591
0.23593
0.104251
0.127538
0.141207
0.122106
0.180928
0.103544
0.168834
0.0716316
0.122933
0.056477
0.149939
0.108893
0.152138
0.765182
0.0925778
0.0897311
0.138355
0.659725
0.104777
0.237078
0.119471
0.100807
0.16274
0.521733
0.110103
0.0521778
0.12936
0.377
0.13959
0.101713
0.152391
0.546313
0.104917
0.110732
0.12423
0.0758507
0.142233
0.112005
0.120914
0.0866068
0.127452
0.546987
0.139242
0.211445
0.138344
0.111878
0.155313
0.0915116
0.124576
0.160708
0.162215
0.185457
0.10195
0.23747
0.112347
0.519985
0.104389
0.168067
0.211407
0.0588876
0.1435
0.595813
0.097267
0.410257
0.101561
0.412321
0.101622
0.0933294
0.128907
0.473536
0.145039
0.179024
0.118328
0.234701
0.116244
0.0906004
0.132141
0.579668
0.109308
0.0756022
0.125861
0.0783252
0.170582
0.210603
0.0929301
0.0908235
0.136871
0.115778
0.150542
0.0926887
0.594243
0.191171
0.135436
0.0641042
0.142455
0.303343
0.112052
0.230552
0.115495
0.350431
0.169778
0.593178
0.10404
0.103971
0.128637
0.0822308
0.153139
0.129409
0.15743
0.479213
0.110984
0.0818391
0.162107
0.148164
0.126088
0.101146
0.468406
0.234939
0.123097
0.0699935
0.15316
0.241718
0.141958
0.114735
0.153076
0.0811728
0.131463
0.0919126
0.154556
0.0806629
0.170211
0.101199
0.156831
0.466094
0.114849
0.0653732
0.151115
0.105744
0.13397
0.217122
0.140567
0.142875
0.142733
0.103588
0.121208
0.207634
0.177527
0.162963
0.103864
0.0975413
0.165407
0.0961063
0.123634
0.152815
0.161741
0.1058
0.17069
0.116029
0.159173
0.191033
0.139996
0.244109
0.122721
0.330368
0.117774
0.546814
0.0998099
0.155029
0.154904
0.12944
0.167846
0.106802
0.184
0.114282
0.171578
0.093437
0.160794
0.185454
0.151535
0.113117
0.183403
0.135399
0.180575
0.165266
0.184796
0.245923
0.131779
0.0963999
0.162019
0.105822
0.168016
0.513936
0.119584
0.261495
0.157256
0.105354
0.153463
0.301296
0.12317
0.368212
0.13068
0.110366
0.196282
0.156855
0.166129
0.13218
0.133758
0.125608
0.160446
0.130156
0.142939
0.220256
0.25659
0.307234
0.129556
0.115647
0.248507
0.108189
0.202509
0.151363
0.22817
0.139746
0.177324
0.285102
0.161925
0.129613
0.130822
0.17081
0.195123
0.224212
0.134706
0.0969625
0.170131
0.134655
0.175959
0.118129
0.157426
0.0813479
0.145693
0.076493
0.188702
0.0819913
0.151443
0.159499
0.198667
0.199075
0.142648
0.122797
0.13676
0.0931881
0.177136
0.437517
0.130963
0.168166
0.139028
0.2755
0.147072
0.111405
0.165443
0.124539
0.178357
0.095858
0.212312
0.118184
0.153764
0.201732
0.208606
1.11978
0.101769
1.1195
1.00606
0.723405
0.714975
0.19963
0.15736
0.709476
0.158308
1.11845
0.0723785
0.709225
0.134229
1.00526
0.348111
0.991151
0.128687
0.70781
0.0882432
0.346211
0.103137
0.990779
0.987787
0.206321
0.853012
0.700089
0.141942
0.705902
0.110753
0.342391
0.0731012
0.852833
0.16455
0.702909
0.110288
0.699175
0.115009
0.852136
0.116673
0.701836
0.139556
0.699992
0.138698
0.697351
0.659173
0.374928
0.104967
0.851604
0.135445
0.698297
0.10781
0.65821
0.0972276
0.198858
0.119434
0.337476
0.253809
0.686937
0.335146
0.246945
0.0882381
0.333095
0.136877
0.850424
0.1051
0.646923
0.17504
0.213239
0.151588
0.322283
0.260424
0.274895
0.843441
0.246768
0.138745
0.644789
0.130794
0.842391
0.614627
0.329847
0.647847
0.236684
0.159385
0.230842
0.173334
0.231797
0.114345
0.613305
0.128715
0.32318
0.11117
0.190505
0.236385
0.272638
0.146653
0.260212
0.20237
0.83848
0.144032
0.25852
0.123841
0.224796
0.10087
0.241018
0.24447
0.267511
0.0971963
0.686288
0.672483
0.267382
0.213922
0.665188
0.129033
0.611396
0.410805
0.80423
0.112041
0.408008
0.143547
0.802703
0.138239
0.224791
0.141118
0.253722
0.155813
0.608004
0.0831601
0.264674
0.134801
0.403043
0.109202
0.664206
0.279395
0.6473
0.146346
0.801078
0.166812
0.564443
0.204333
0.215513
0.136097
0.268187
0.414596
0.762205
0.0930695
0.413027
0.25932
0.545574
0.569258
0.342817
0.178525
0.325853
0.126124
0.543318
0.191632
0.535252
0.119951
0.645924
0.131477
0.760899
0.624826
0.294547
0.28315
0.507417
0.21273
0.382232
0.165015
0.404053
0.124534
0.623172
0.181948
0.305726
0.120601
0.759887
0.201469
0.616073
0.189973
0.498381
0.269412
0.359368
0.102722
0.264339
0.203475
0.754993
0.0959869
0.754475
0.597347
0.6003
0.204557
0.452194
0.311645
0.396207
0.168265
0.274971
0.1795
0.610951
0.103744
0.596302
0.15777
0.373054
0.172397
0.595523
0.145924
0.351162
0.283095
0.274199
0.465738
0.283417
0.197721
0.603969
0.227068
0.593075
0.183228
0.589684
0.200266
0.352729
0.161431
0.592332
0.556672
0.328102
0.464565
0.416481
0.234427
0.314147
0.223492
0.289079
0.142659
0.586888
0.123656
0.461626
0.14841
0.410102
0.19184
0.586307
0.284963
0.562951
0.149515
0.583635
0.181032
0.452152
0.214273
0.389595
0.496725
0.424034
0.2368
0.478097
0.200668
0.408492
0.171373
0.443793
0.183936
0.556328
0.257532
0.537288
0.218114
0.462459
0.30624
0.3404
0.219777
0.425045
0.276313
0.511732
0.326092
0.400478
0.326105
0.463116
1.11785
0.130782
0.138106
0.721723
0.720125
0.135559
0.14638
0.712924
0.712048
0.110095
0.135392
0.176237
