# vtk DataFile Version 3.0
Tree
ASCII
DATASET POLYDATA
POINTS 1732 float
40693.5 56318.5 68.45
40693.5 56318.5 2568.45
34443.5 55443.5 6443.45
33438.5 52817.5 12801.5
33820.4 53815.4 10385.4
37151.5 52322.5 13543.5
33761.1 53047.4 12423
34181.5 52569.5 14038.5
34021.8 52751.1 13424.6
29726.5 49847.5 17256.4
31358.7 50950.9 15800.3
25270.5 48857.5 14038.5
36460 52275.1 13349.1
38636.5 49104.5 18245.4
33561.1 52904.9 12657.7
29230.5 51827.5 11563.5
32370.7 51635 14897.6
33191.5 49847.5 19730.4
29812.7 49921.8 16954.7
26261.5 47619.5 18741.4
38463.7 49694.5 16497.1
42843.5 45392.5 17998.4
26775.7 49145.5 14826
24280.4 46877.5 16265.5
32523 50334.5 18212.2
30468.5 48857.5 20968.4
38679.9 49172.4 18118.7
39378.5 48114.5 21711.4
33042.6 49987.6 19597.4
34181.5 49352.5 23443.4
28280.4 48828.4 18176.5
27745.5 47867.5 21215.4
38800.9 48742.7 20374.5
37398.5 49352.5 23196.4
41764.8 46207.5 17315.9
43585.5 42917.5 16018.5
39159 48353.2 21203.4
42348.5 46629.5 21711.4
42990 43493.9 16126.3
42843.5 40689.5 14286.5
41764.5 46748.4 21470.2
44328.5 44154.5 20968.4
24524.5 47048.9 16151.5
22300.4 44897.5 17503.4
37931.4 49120.8 22124.1
39625.5 48857.5 25175.5
30919.3 49256.3 20778.6
29726.5 48857.5 24928.4
33123 49912 19669.2
35913.5 49847.5 20226.4
34156.9 54694.6 8256.77
32193.5 53193.4 8693.45
22628.5 44888.2 17376.7
19083.4 39452.5 19978.4
23500.6 45882.1 16813.1
23538.4 45392.5 20968.4
27596.9 48028.7 20971.3
26756.5 47619.5 22948.4
43086.4 40946.8 14381.4
43585.5 39204.5 13048.5
43157.3 41594.3 15117.4
43833.5 39204.5 15276.5
34406.6 49882.3 19925.5
36160.5 50094.5 17750.4
43576.5 40112.6 15216.1
46061.5 37472.5 20968.4
33977.3 49504.9 23213.4
34428.5 49352.5 25918.5
34130.5 49487.3 25690.8
33685.5 49847.5 32600.5
42738.8 45762.7 21279.5
44576.5 44402.5 24185.4
20109.9 40123.1 19380
19578.4 33759.5 20721.4
34315.3 49403.7 25832
37398.5 49352.5 26908.5
19907.9 37704.9 19889.7
19330.4 35739.5 26413.5
43731.2 45028.2 22848.7
42843.5 46877.5 26908.5
33584.5 49899.7 32328.4
32943.5 50342.5 37551.5
26946.6 47866.7 22707
26013.5 48362.5 26166.5
33647.1 49867.3 32497.1
40368.5 48609.5 33343.5
33238.4 50138.8 35148.9
38388.5 48609.5 39036.5
43876 44301.6 21181.3
45070.5 41184.5 21711.4
37621.7 48710.6 37848.1
42843.5 46382.5 38045.5
20005.6 34412.8 20672.8
21806.4 28562.5 22453.4
23147 45420.7 20227.7
20815.4 44649.5 23691.4
21852.7 45119.7 23068.2
21063.4 45639.5 29878.5
33079.1 50248.8 36446.3
27498.5 49352.5 38788.5
21742.9 45885.1 27889
23943.5 48693.4 32693.5
43735.9 39549.6 15253.5
45070.5 34502.5 16018.5
41466.4 46538.9 37629.9
46061.5 41679.5 35570.5
19798.2 35785.1 25206.5
21558.4 32274.5 30373.5
38097.1 48647.9 38584.9
35666.5 48609.5 44976.5
44386.2 44290.3 23853.3
45813.5 41679.5 25918.5
45532 41726.1 25776.7
46555.5 36977.5 28888.5
19508.2 35756.8 25954.8
20568.4 38709.5 32106.5
20628.6 37843 31242.4
23043.4 38214.5 37798.5
21965.4 32497.1 29621.1
25023.5 29057.5 33591.5
23171.7 38511.4 37225.2
26261.5 39699.5 43243.5
25117.1 29878.9 33112.1
29726.5 27077.5 37551.5
42989 46493.5 26579.6
42348.5 47619.5 30373.5
21513.9 45522.3 29487.6
21806.4 43907.5 34333.5
44315.4 43526.1 36353.1
45566.5 38709.5 40273.5
44916.8 39317 39457.6
43338.5 33759.5 42006.5
21453.2 30402.2 22523.2
23785.4 27077.5 27403.5
25059.1 29369.7 33409.3
28241.5 23859.4 30868.5
26761.2 48322.5 25267.9
28488.5 49599.5 30373.5
46210 37566.6 28221.6
46061.5 32027.5 30126.5
45952 34340 30069.6
44823.5 31532.5 35570.5
45763.1 32409.9 29924.1
44328.5 26334.5 28888.5
38277.8 48624.1 38864.9
41358.5 45144.5 43985.5
43544.4 35011.6 40802.5
40863.5 28809.5 39778.5
28331.6 24791.1 31058
32200.5 20889.4 28641.5
21187.8 41974.2 18082.5
20073.4 38709.5 16265.5
20532.7 39159.1 16832.3
20568.4 33759.5 15771.5
20555.7 32888.8 21375.9
22300.4 27819.5 17256.4
40857.9 45010.6 42762.7
43091.5 40689.5 45470.5
22365.9 28332.8 17604.5
24528.4 23859.4 13791.5
24048.9 25263.3 15812.1
27745.5 20147.4 16513.4
44320.7 36660.7 15004.7
44576.5 31532.5 11563.5
28522.1 48876.9 38108.4
24776.4 46629.5 39036.5
44577.2 27420.4 28613.7
43338.5 22374.4 24928.4
25002.2 39847 40620.9
26756.5 44402.5 42995.5
23092.2 38327.3 37580.6
26013.5 34254.5 41263.5
25536.7 35250.3 40892.8
28241.5 33512.5 45718.5
21254.2 44788.3 23739.4
19578.4 43659.5 26660.5
45523.2 33273.2 32159.9
45813.5 35739.5 36066.5
45201.3 32472.5 33728.8
42843.5 27324.5 33591.5
43544.4 35011.6 40802.5
41853.5 35987.5 46461.5
28182.5 28369.8 36656
30221.5 29304.5 42253.5
36865 49282.7 32036.5
39378.5 48857.5 30126.5
40336.7 46155.5 41153.9
43585.5 44154.5 41015.5
43416.7 34235.3 41549
40368.5 32027.5 43985.5
29139.8 27568.6 37211.2
31211.5 23859.4 34828.5
45706.5 41697.2 25864.6
46061.5 41927.5 29878.5
20732.1 34663 15642.1
21806.4 29799.5 12801.5
43150.8 22892.4 24981.3
41606.5 19899.4 21958.4
21951.1 43860.1 17966.2
20568.4 43164.5 20226.4
27745.7 49334.9 30043.5
28241.5 50094.5 34085.5
44423 26747.2 28784.1
42100.5 24354.4 30126.5
35980.2 49376.1 26413.3
36408.5 49599.5 29136.5
42829.4 21873.2 23568.7
43833.5 21384.4 20721.4
41110 44897.3 43748.2
41693.4 43943.4 47443.4
20982.2 44702.3 23709.6
19083.4 42422.5 22948.4
45163.7 39086.1 39767.6
44823.5 39947.5 42995.5
27213.7 34172.9 43884.7
27993.5 37224.5 46955.5
42694.6 47142.3 29626.3
43585.5 46382.5 32353.5
43976.7 30123.3 34077.2
42348.5 28562.5 36560.5
22007.3 29015.7 22454.4
24528.4 25097.5 22206.4
45747.1 37507 20487.8
46555.5 36234.5 22700.4
21960.7 37574.5 34150.2
23785.4 34254.5 37055.5
44785.6 35322.6 15633.2
45813.5 34997.5 18741.4
25718.3 46820.5 38855.1
24280.4 43659.5 39530.5
26828.8 47713.4 22856.6
24528.4 46877.5 23443.4
21112.2 31347.1 22087.2
21311.4 30294.5 26166.5
45942 37485.6 20785.8
46555.5 38462.5 22700.4
21540.5 30339.4 25811
22300.4 29552.5 28393.5
26092.4 48241.3 25918.6
24280.4 47619.5 27155.5
30077.8 49250.3 38037.7
28241.5 48114.5 41758.5
32813.1 49486 29646.8
31953.5 49352.5 30621.5
23553 31389.2 32127.1
24033.4 31532.5 34581.5
20229.7 43937 25265.8
19083.4 42174.5 25670.5
24525.2 25610 22070.4
26261.5 23612.4 21711.4
28352.3 49533.9 30378.5
30221.5 50094.5 31611.5
42190.2 36238.2 45519.1
41606.5 37719.5 47946.5
45000.1 32693.8 11973.6
46308.5 31284.5 10078.5
23919.4 27152 26586.5
25270.5 25592.5 27898.5
46006.4 41569.7 28542.9
46555.5 39947.5 30373.5
25832.3 34632.9 41122.6
26013.5 32027.5 39036.5
43567.9 46247.8 32176.1
44328.5 45392.5 34333.5
26193.4 42095.1 42530.9
27251.5 42669.5 44728.5
45358.6 34782.1 17156.2
46308.5 32274.5 18741.4
25653.8 24173 21559.7
26261.5 22622.4 19730.4
43577.4 46320.5 32271.9
42843.5 47124.5 34581.5
32014.3 21605.1 28614.4
34428.5 19899.4 26908.5
19415.3 42479.6 25390.4
18588.4 39947.5 24681.4
26172.5 32523.1 39634.3
27498.5 30542.5 39283.5
46352.3 40027.8 30319.9
46555.5 38709.5 31858.5
30940 22956.3 30223
33438.5 21879.4 30868.5
18968.8 41112.3 25007.5
19083.4 38957.5 27155.5
26236.5 39596.3 43168.5
27251.5 39204.5 45223.5
35386 49367.8 35776.4
37151.5 48609.5 35076.5
28089.7 33535.7 45111.4
29726.5 32027.5 45966.5
36810.6 48909.6 35390.6
39130.5 48857.5 35570.5
29854 51878 12034.1
27745.5 51084.5 12306.5
20591.3 38380.2 31778.2
20073.4 42174.5 31115.5
42368.6 46137.3 21352
43338.5 45639.5 19730.4
45659.2 41762.3 35712.6
46555.5 38709.5 35076.5
26384.7 47651 18636.1
24776.4 46629.5 18988.4
28201.5 49978.4 33849.1
28488.5 50342.5 36313.5
43359.2 43136.5 16059.5
43585.5 41679.5 17256.4
21692.7 43962.3 33129.1
21558.4 41184.5 35076.5
22477.5 44892.5 17435
21063.4 43659.5 16513.4
28310.5 50116.7 34785.6
26013.5 49352.5 36560.5
30256.5 48999.8 23981.3
31211.5 49104.5 26166.5
21357 30842.4 18437.6
21558.4 30294.5 16265.5
21425.6 43595.8 18825.1
21806.4 44402.5 20226.4
44967.1 31889.7 34870.6
45318.5 33264.5 37055.5
21006.3 43454 19831.7
21063.4 43907.5 21711.4
21930.7 43931.1 34127.4
23043.4 43907.5 36560.5
37223.5 49289.6 26878.8
38883.5 48857.5 27651.5
22265.3 29942.9 28121.5
23043.4 30047.5 30373.5
44764 38248.7 17283.8
45318.5 36977.5 17503.4
41971.3 20328.4 22046.7
41853.5 19157.4 19483.4
44896.3 41766.2 21264.6
45813.5 39699.5 20721.4
43210.7 23918.5 27005
42595.5 22622.4 26908.5
46271.6 38363.1 22134.3
46061.5 40194.5 23443.4
42589 25000.4 29971.9
41110.5 24354.4 31611.5
43436.3 45826.5 25493
44328.5 45392.5 28145.5
24260.5 39636.1 39383.8
24280.4 41679.5 40273.5
38672 48937 30968.2
40615.5 48362.5 31363.5
24018.3 31763.8 34211.9
24528.4 32522.5 36066.5
44962.2 34814.1 15872.1
45070.5 33017.5 15028.5
24081 36587 38713.8
24528.4 34749.5 38788.5
39943.5 48563.3 32960.7
41853.5 47867.5 33096.5
25163.2 35890.7 40355.2
26508.5 36482.5 42500.5
22439.2 46891.7 30669.3
22300.4 46877.5 32106.5
29717.1 25647.6 35398
29478.5 24849.4 34085.5
45908.6 41711 35624.5
46308.5 40937.5 33838.5
26939.3 34198 43056.5
28488.5 32274.5 43738.5
39894.4 47796.3 37054
41110.5 47619.5 36066.5
29405.4 26684.9 36377.2
31458.5 25592.5 36560.5
46126.8 35526.7 29708
46555.5 34749.5 32106.5
28236.9 49573.1 15679.4
26756.5 48609.5 16760.4
33425.3 50009.7 33625.9
30963.5 50342.5 34581.5
31464.8 52243.2 12582.9
29973.5 51332.5 14038.5
21778.2 32394.7 29967.2
21311.4 34007.5 31363.5
43697.7 41969 17002.4
44823.5 40937.5 17750.4
31697 50104.6 37691.8
30715.5 50589.5 39530.5
20734.8 43274.5 20076.4
19826.4 41927.5 20226.4
45413.4 38852.6 40081.3
44823.5 37719.5 42253.5
36016.4 49503.4 28000.1
34923.5 49599.5 29383.5
41030.9 32696 43816.5
40121.5 32522.5 45470.5
22259.1 46630 29363.1
23291.4 48114.5 29878.5
23957.7 27080.8 27229.5
24528.4 26829.5 29136.5
19291.2 39460.2 19955.4
18588.4 38214.5 20968.4
26985 42295.3 44063.2
27993.5 41432.5 45470.5
27876.1 49855.6 32854.7
26756.5 50342.5 34085.5
34134.6 52558.2 13933.3
34428.5 51827.5 15523.5
34398.1 49722.5 35487.8
34923.5 49847.5 37551.5
27594.5 48152.7 20216.3
26261.5 47372.5 20968.4
44758.1 31610.6 35421.5
43833.5 30789.5 37055.5
45739.3 42008.3 27146.1
45566.5 42917.5 28145.5
43065.2 36400.9 43923.4
43338.5 37472.5 44976.5
19209.5 42290.4 25564.1
19083.4 41927.5 27155.5
31010.2 24223.9 34664.4
32200.5 23117.4 33591.5
43389.4 44668.6 37002.3
44823.5 44154.5 37798.5
37619.6 49271.4 23029
[...]
CELL_DATA 1731
SCALARS radius float
LOOKUP_TABLE default
2.122e-314
100
100
100
77.463
77.463
72.0123
72.0123
69.4326
69.4326
60.0051
60.0051
72.0123
72.0123
69.4326
69.4326
64.547
64.547
55.7829
55.7829
60.0051
60.0051
51.8578
51.8578
60.0051
60.0051
57.8555
57.8555
53.7845
53.7845
51.8578
51.8578
50
50
53.7845
53.7845
48.2088
48.2088
48.2088
48.2088
44.8166
44.8166
46.4818
46.4818
48.2088
48.2088
53.7845
53.7845
51.8578
51.8578
86.4222
86.4222
41.6631
41.6631
43.2111
43.2111
46.4818
46.4818
44.8166
44.8166
46.4818
46.4818
48.2088
48.2088
41.6631
41.6631
46.4818
46.4818
44.8166
44.8166
41.6631
41.6631
34.7163
34.7163
41.6631
41.6631
32.2735
32.2735
38.7315
38.7315
37.344
37.344
43.2111
43.2111
36.0062
36.0062
33.4726
33.4726
37.344
37.344
26.8923
26.8923
28.9278
28.9278
38.7315
38.7315
34.7163
34.7163
32.2735
32.2735
28.9278
28.9278
40.1706
40.1706
24.1044
24.1044
30.0026
30.0026
25.9289
25.9289
37.344
37.344
33.4726
33.4726
28.9278
28.9278
26.8923
26.8923
25.9289
25.9289
21.6055
21.6055
22.4083
22.4083
33.4726
33.4726
27.8914
27.8914
21.6055
21.6055
18.672
18.672
24.1044
24.1044
21.6055
21.6055
38.7315
38.7315
30.0026
30.0026
25
25
24.1044
24.1044
25
25
18.0031
18.0031
16.7363
16.7363
37.344
37.344
33.4726
33.4726
26.8923
26.8923
23.2409
23.2409
25
25
20.8316
20.8316
37.344
37.344
26.8923
26.8923
19.3657
19.3657
18.672
18.672
20.8316
20.8316
17.3581
17.3581
33.4726
33.4726
23.2409
23.2409
20.8316
20.8316
17.3581
17.3581
20.8316
20.8316
30.0026
30.0026
24.1044
24.1044
16.1367
16.1367
19.3657
19.3657
32.2735
32.2735
31.1173
31.1173
16.7363
16.7363
40.1706
40.1706
34.7163
34.7163
18.0031
18.0031
38.7315
38.7315
15.0013
15.0013
22.4083
22.4083
32.2735
32.2735
18.0031
18.0031
15.0013
15.0013
31.1173
31.1173
18.672
18.672
22.4083
22.4083
32.2735
32.2735
24.1044
24.1044
36.0062
36.0062
24.1044
24.1044
41.6631
41.6631
25
25
30.0026
30.0026
22.4083
22.4083
37.344
37.344
30.0026
30.0026
38.7315
38.7315
23.2409
23.2409
31.1173
31.1173
20.8316
20.8316
33.4726
33.4726
16.1367
16.1367
36.0062
36.0062
21.6055
21.6055
27.8914
27.8914
16.7363
16.7363
28.9278
28.9278
16.7363
16.7363
33.4726
33.4726
19.3657
19.3657
27.8914
27.8914
13.9457
13.9457
28.9278
28.9278
16.1367
16.1367
25.9289
25.9289
15.0013
15.0013
27.8914
27.8914
16.1367
16.1367
28.9278
28.9278
13.4461
13.4461
26.8923
26.8923
57.8555
57.8555
25.9289
25.9289
43.2111
43.2111
20.8316
20.8316
50
50
31.1173
31.1173
46.4818
46.4818
22.4083
22.4083
40.1706
40.1706
28.9278
28.9278
51.8578
51.8578
25.9289
25.9289
38.7315
38.7315
20.0853
20.0853
37.344
37.344
21.6055
21.6055
34.7163
34.7163
20.8316
20.8316
36.0062
36.0062
13.9457
13.9457
33.4726
33.4726
17.3581
17.3581
28.9278
28.9278
16.7363
16.7363
37.344
37.344
19.3657
19.3657
27.8914
27.8914
22.4083
22.4083
34.7163
34.7163
19.3657
19.3657
28.9278
28.9278
18.672
18.672
26.8923
26.8923
16.1367
16.1367
20.0853
20.0853
15.5587
15.5587
25
25
17.3581
17.3581
26.8923
26.8923
53.7845
53.7845
34.7163
34.7163
62.2346
62.2346
25
25
43.2111
43.2111
31.1173
31.1173
36.0062
36.0062
16.7363
16.7363
37.344
37.344
14.4639
14.4639
27.8914
27.8914
20.8316
20.8316
32.2735
32.2735
16.1367
16.1367
32.2735
32.2735
66.9452
66.9452
31.1173
31.1173
50
50
19.3657
19.3657
30.0026
30.0026
16.7363
16.7363
27.8914
27.8914
15.5587
15.5587
23.2409
23.2409
46.4818
46.4818
16.1367
16.1367
26.8923
26.8923
12.9644
12.9644
25.9289
25.9289
44.8166
44.8166
16.1367
16.1367
31.1173
31.1173
20.0853
20.0853
25
25
51.8578
51.8578
22.4083
22.4083
38.7315
38.7315
15.0013
15.0013
27.8914
27.8914
53.7845
53.7845
22.4083
22.4083
33.4726
33.4726
17.3581
17.3581
25
25
48.2088
48.2088
27.8914
27.8914
28.9278
28.9278
13.4461
13.4461
25
25
37.344
37.344
21.6055
21.6055
25
25
36.0062
36.0062
15.5587
15.5587
23.2409
23.2409
37.344
37.344
16.7363
16.7363
26.8923
26.8923
19.3657
19.3657
25.9289
25.9289
27.8914
27.8914
14.4639
14.4639
33.4726
33.4726
43.2111
43.2111
18.672
18.672
23.2409
23.2409
34.7163
34.7163
25.9289
25.9289
30.0026
30.0026
30.0026
30.0026
60.0051
60.0051
20.0853
20.0853
26.8923
26.8923
83.3262
83.3262
21.6055
21.6055
34.7163
34.7163
89.6332
89.6332
16.7363
16.7363
30.0026
30.0026
74.6879
74.6879
19.3657
19.3657
23.2409
23.2409
40.1706
40.1706
15.5587
15.5587
30.0026
30.0026
36.0062
36.0062
20.8316
20.8316
16.1367
16.1367
36.0062
36.0062
55.7829
55.7829
16.7363
16.7363
22.4083
22.4083
46.4818
46.4818
15.5587
15.5587
19.3657
19.3657
41.6631
41.6631
18.0031
18.0031
25.9289
25.9289
33.4726
33.4726
46.4818
46.4818
18.672
18.672
28.9278
28.9278
32.2735
32.2735
44.8166
44.8166
64.547
64.547
24.1044
24.1044
32.2735
32.2735
17.3581
17.3581
22.4083
22.4083
21.6055
21.6055
33.4726
33.4726
57.8555
57.8555
20.0853
20.0853
24.1044
24.1044
32.2735
32.2735
51.8578
51.8578
18.0031
18.0031
22.4083
22.4083
27.8914
27.8914
40.1706
40.1706
62.2346
62.2346
24.1044
24.1044
27.8914
27.8914
28.9278
28.9278
37.344
37.344
66.9452
66.9452
25
25
24.1044
24.1044
36.0062
36.0062
53.7845
53.7845
17.3581
17.3581
19.3657
19.3657
31.1173
31.1173
40.1706
40.1706
16.1367
16.1367
23.2409
23.2409
31.1173
31.1173
40.1706
40.1706
57.8555
57.8555
19.3657
19.3657
20.8316
20.8316
31.1173
31.1173
40.1706
40.1706
69.4326
69.4326
16.1367
16.1367
17.3581
17.3581
22.4083
22.4083
33.4726
33.4726
38.7315
38.7315
66.9452
66.9452
21.6055
21.6055
25.9289
25.9289
24.1044
24.1044
36.0062
36.0062
55.7829
55.7829
12.9644
12.9644
16.7363
16.7363
18.672
18.672
27.8914
27.8914
34.7163
34.7163
57.8555
57.8555
19.3657
19.3657
21.6055
21.6055
30.0026
30.0026
32.2735
32.2735
46.4818
46.4818
62.2346
62.2346
21.6055
21.6055
13.9457
13.9457
22.4083
22.4083
31.1173
31.1173
50
50
17.3581
17.3581
18.0031
18.0031
17.3581
17.3581
25.9289
25.9289
32.2735
32.2735
50
50
62.2346
62.2346
16.1367
16.1367
23.2409
23.2409
27.8914
27.8914
25.9289
25.9289
46.4818
46.4818
60.0051
60.0051
24.1044
24.1044
18.672
18.672
13.9457
13.9457
17.3581
17.3581
28.9278
28.9278
43.2111
43.2111
64.547
64.547
64.547
64.547
86.4222
86.4222
80.3411
80.3411
72.0123
72.0123
57.8555
57.8555
74.6879
74.6879
46.4818
46.4818
51.8578
51.8578
46.4818
46.4818
48.2088
48.2088
44.8166
44.8166
44.8166
44.8166
44.8166
44.8166
40.1706
40.1706
34.7163
34.7163
44.8166
44.8166
43.2111
43.2111
36.0062
36.0062
36.0062
36.0062
38.7315
38.7315
31.1173
31.1173
33.4726
33.4726
28.9278
28.9278
27.8914
27.8914
30.0026
30.0026
26.8923
26.8923
31.1173
31.1173
31.1173
31.1173
32.2735
32.2735
27.8914
27.8914
24.1044
24.1044
31.1173
31.1173
26.8923
26.8923
26.8923
26.8923
24.1044
24.1044
21.6055
21.6055
20.0853
20.0853
25
25
30.0026
30.0026
28.9278
28.9278
20.0853
20.0853
25.9289
25.9289
25
25
25
25
25
25
25.9289
25.9289
25
25
24.1044
24.1044
22.4083
22.4083
26.8923
26.8923
17.3581
17.3581
23.2409
23.2409
18.672
18.672
23.2409
23.2409
24.1044
24.1044
14.4639
14.4639
18.672
18.672
21.6055
21.6055
16.1367
16.1367
25
25
18.0031
18.0031
16.1367
16.1367
14.4639
14.4639
14.4639
14.4639
13.9457
13.9457
16.1367
16.1367
14.4639
14.4639
14.4639
14.4639
15.0013
15.0013
16.7363
16.7363
16.7363
16.7363
57.8555
57.8555
55.7829
55.7829
36.0062
36.0062
32.2735
32.2735
18.672
18.672
21.6055
21.6055
20.0853
20.0853
18.672
18.672
62.2346
62.2346
44.8166
44.8166
32.2735
32.2735
26.8923
26.8923
23.2409
23.2409
21.6055
21.6055
15.5587
15.5587
19.3657
19.3657
53.7845
53.7845
36.0062
36.0062
28.9278
28.9278
27.8914
27.8914
25.9289
25.9289
15.5587
15.5587
20.0853
20.0853
60.0051
60.0051
40.1706
40.1706
28.9278
28.9278
20.0853
20.0853
18.0031
18.0031
66.9452
66.9452
30.0026
30.0026
23.2409
23.2409
55.7829
55.7829
33.4726
33.4726
27.8914
27.8914
20.8316
20.8316
16.1367
16.1367
18.0031
18.0031
51.8578
51.8578
27.8914
27.8914
18.0031
18.0031
44.8166
44.8166
25.9289
25.9289
18.0031
18.0031
46.4818
46.4818
27.8914
27.8914
22.4083
22.4083
41.6631
41.6631
21.6055
21.6055
18.0031
18.0031
32.2735
32.2735
22.4083
22.4083
92.9635
92.9635
24.1044
24.1044
18.0031
18.0031
36.0062
36.0062
20.0853
20.0853
34.7163
34.7163
23.2409
23.2409
34.7163
34.7163
21.6055
21.6055
36.0062
36.0062
41.6631
41.6631
18.672
18.672
20.8316
20.8316
55.7829
55.7829
20.0853
20.0853
15.5587
15.5587
16.7363
16.7363
55.7829
55.7829
20.0853
20.0853
96.4176
96.4176
66.9452
66.9452
50
50
50
50
51.8578
51.8578
48.2088
48.2088
51.8578
51.8578
44.8166
44.8166
50
50
43.2111
43.2111
48.2088
48.2088
41.6631
41.6631
38.7315
38.7315
40.1706
40.1706
37.344
37.344
34.7163
34.7163
50
50
34.7163
34.7163
48.2088
48.2088
36.0062
36.0062
38.7315
38.7315
34.7163
34.7163
36.0062
36.0062
34.7163
34.7163
43.2111
43.2111
48.2088
48.2088
26.8923
26.8923
32.2735
32.2735
32.2735
32.2735
27.8914
27.8914
26.8923
26.8923
31.1173
31.1173
31.1173
31.1173
25.9289
25.9289
32.2735
32.2735
31.1173
31.1173
33.4726
33.4726
34.7163
34.7163
33.4726
33.4726
27.8914
27.8914
31.1173
31.1173
30.0026
30.0026
32.2735
32.2735
30.0026
30.0026
20.8316
20.8316
28.9278
28.9278
27.8914
27.8914
25.9289
25.9289
26.8923
26.8923
20.8316
20.8316
26.8923
26.8923
23.2409
23.2409
22.4083
22.4083
25.9289
25.9289
27.8914
27.8914
19.3657
19.3657
25.9289
25.9289
25
25
26.8923
26.8923
23.2409
23.2409
21.6055
21.6055
14.4639
14.4639
30.0026
30.0026
22.4083
22.4083
16.7363
16.7363
26.8923
26.8923
20.0853
20.0853
32.2735
32.2735
28.9278
28.9278
19.3657
19.3657
22.4083
22.4083
14.4639
14.4639
17.3581
17.3581
17.3581
17.3581
20.0853
20.0853
17.3581
17.3581
16.7363
16.7363
23.2409
23.2409
16.1367
16.1367
13.4461
13.4461
13.4461
13.4461
16.7363
16.7363
16.1367
16.1367
25
25
23.2409
23.2409
20.8316
20.8316
18.0031
18.0031
20.8316
20.8316
20.8316
20.8316
18.672
18.672
26.8923
26.8923
19.3657
19.3657
20.0853
20.0853
20.0853
20.0853
21.6055
21.6055
20.8316
20.8316
20.8316
20.8316
22.4083
22.4083
18.672
18.672
15.5587
15.5587
22.4083
22.4083
16.7363
16.7363
18.672
18.672
13.9457
13.9457
24.1044
24.1044
20.0853
20.0853
13.4461
13.4461
18.672
18.672
18.672
18.672
13.9457
13.9457
18.0031
18.0031
20.0853
20.0853
13.4461
13.4461
18.0031
18.0031
21.6055
21.6055
13.9457
13.9457
19.3657
19.3657
12.9644
12.9644
15.0013
15.0013
14.4639
14.4639
19.3657
19.3657
18.672
18.672
13.4461
13.4461
20.8316
20.8316
16.1367
16.1367
16.1367
16.1367
20.0853
20.0853
12.5
12.5
17.3581
17.3581
13.9457
13.9457
18.0031
18.0031
13.9457
13.9457
13.4461
13.4461
7.00259e-312
7.00259e-312
7.00259e-312
7.00259e-312
7.00259e-312
7.00259e-312
7.00259e-312
7.00259e-312
7.00259e-312
7.00259e-312
7.00259e-312
7.00259e-312
7.00259e-312
7.00259e-312
7.00259e-312
7.00259e-312
7.00259e-312
7.00259e-312
7.00259e-312
7.00259e-312
7.00259e-312
7.00259e-312
7.00259e-312
7.00259e-312
7.00259e-312
7.00259e-312
7.00259e-312
7.00259e-312
7.00259e-312
7.00259e-312
7.00259e-312
7.00259e-312
7.00259e-312
7.00259e-312
7.00259e-312
7.00259e-312
7.00259e-312
7.00259e-312
7.00259e-312
7.00259e-312
7.00259e-312
7.00259e-312
7.00259e-312
7.00259e-312
7.00259e-312
7.00259e-312
7.00259e-312
7.00259e-312
7.00259e-312
7.00259e-312
7.00259e-312
7.00259e-312
7.00259e-312
7.00259e-312
7.00259e-312
7.00259e-312
7.00259e-312
7.00259e-312
7.00259e-312
7.00259e-312
7.00259e-312
7.00259e-312
7.00259e-312
7.00259e-312
7.00259e-312
7.00259e-312
7.00259e-312
7.00259e-312
7.00259e-312
7.00259e-312
7.00259e-312
7.00259e-312
7.00259e-312
7.00259e-312
7.00259e-312
7.00259e-312
7.00259e-312
7.00259e-312
7.00259e-312
7.00259e-312
7.00259e-312
7.00259e-312
7.00259e-312
7.00259e-312
7.00259e-312
7.00259e-312
7.00259e-312
7.00259e-312
7.00259e-312
7.00259e-312
7.00259e-312
7.00259e-312
7.00259e-312
7.00259e-312
7.00259e-312
7.00259e-312
7.00259e-312
7.00259e-312
7.00259e-312
7.00259e-312
7.00259e-312
7.00259e-312
7.00259e-312
7.00259e-312
7.00259e-312
7.00259e-312
7.00259e-312
7.00259e-312
7.00259e-312
7.00259e-312
7.00259e-312
7.00259e-312
7.00259e-312
7.00259e-312
7.00259e-312
7.00259e-312
7.00259e-312
7.00259e-312
7.00259e-312
7.00259e-312
7.00259e-312
7.00259e-312
7.00259e-312
7.00259e-312
7.00259e-312
7.00259e-312
7.00259e-312
7.00259e-312
7.00259e-312
7.00259e-312
7.00259e-312
7.00259e-312
7.00259e-312
7.00259e-312
7.00259e-312
7.00259e-312
7.00259e-312
7.00259e-312
7.00259e-312
7.00259e-312
7.00259e-312
7.00259e-312
7.00259e-312
7.00259e-312
7.00259e-312
7.00259e-312
7.00259e-312
7.00259e-312
7.00259e-312
7.00259e-312
7.00259e-312
7.00259e-312
7.00259e-312
7.00259e-312
7.00259e-312
7.00259e-312
7.00259e-312
7.00259e-312
7.00259e-312
7.00259e-312
7.00259e-312
7.00259e-312
7.00259e-312
7.00259e-312
7.00259e-312
7.00259e-312
7.00259e-312
7.00259e-312
7.00259e-312
7.00259e-312
7.00259e-312
7.00259e-312
7.00259e-312
7.00259e-312
7.00259e-312
7.00259e-312
7.00259e-312
7.00259e-312
7.00259e-312
7.00259e-312
7.00259e-312
7.00259e-312
7.00259e-312
7.00259e-312
7.00259e-312
7.00259e-312
7.00259e-312
7.00259e-312
7.00259e-312
7.00259e-312
7.00259e-312
7.00259e-312
7.00259e-312
7.00259e-312
7.00259e-312
7.00259e-312
7.00259e-312
7.00259e-312
7.00259e-312
7.00259e-312
7.00259e-312
7.00259e-312
7.00259e-312
7.00259e-312
7.00259e-312
7.00259e-312
7.00259e-312
7.00259e-312
7.00259e-312
7.00259e-312
7.00259e-312
7.00259e-312
7.00259e-312
7.00259e-312
7.00259e-312
7.00259e-312
7.00259e-312
7.00259e-312
7.00259e-312
7.00259e-312
7.00259e-312
7.00259e-312
7.00259e-312
7.00259e-312
7.00259e-312
7.00259e-312
7.00259e-312
7.00259e-312
7.00259e-312
7.00259e-312
7.00259e-312
7.00259e-312
7.00259e-312
7.00259e-312
7.00259e-312
7.00259e-312
7.00259e-312
7.00259e-312
7.00259e-312
7.00259e-312
7.00259e-312
7.00259e-312
7.00259e-312
7.00259e-312
7.00259e-312
7.00259e-312
7.00259e-312
7.00259e-312
7.00259e-312
7.00259e-312
7.00259e-312
7.00259e-312
7.00259e-312
7.00259e-312
7.00259e-312
7.00259e-312
7.00259e-312
7.00259e-312
7.00259e-312
7.00259e-312
7.00259e-312
7.00259e-312
7.00259e-312
7.00259e-312
7.00259e-312
7.00259e-312
7.00259e-312
7.00259e-312
7.00259e-312
7.00259e-312
7.00259e-312
7.00259e-312
7.00259e-312
7.00259e-312
7.00259e-312
7.00259e-312
7.00259e-312
7.00259e-312
7.00259e-312
7.00259e-312
7.00259e-312
7.00259e-312
7.00259e-312
7.00259e-312
7.00259e-312
7.00259e-312
7.00259e-312
7.00259e-312
7.00259e-312
7.00259e-312
7.00259e-312
7.00259e-312
7.00259e-312
7.00259e-312
7.00259e-312
7.00259e-312
7.00259e-312
7.00259e-312
7.00259e-312
7.00259e-312
7.00259e-312
7.00259e-312
7.00259e-312
7.00259e-312
7.00259e-312
7.00259e-312
7.00259e-312
7.00259e-312
7.00259e-312
7.00259e-312
7.00259e-312
7.00259e-312
7.00259e-312
7.00259e-312
7.00259e-312
7.00259e-312
7.00259e-312
7.00259e-312
7.00259e-312
7.00259e-312
7.00259e-312
7.00259e-312
7.00259e-312
7.00259e-312
7.00259e-312
7.00259e-312
7.00259e-312
7.00259e-312
7.00259e-312
7.00259e-312
7.00259e-312
7.00259e-312
7.00259e-312
7.00259e-312
7.00259e-312
7.00259e-312
7.00259e-312
7.00259e-312
7.00259e-312
7.00259e-312
7.00259e-312
7.00259e-312
7.00259e-312
7.00259e-312
7.00259e-312
7.00259e-312
7.00259e-312
7.00259e-312
7.00259e-312
7.00259e-312
7.00259e-312
7.00259e-312
7.00259e-312
7.00259e-312
7.00259e-312
7.00259e-312
7.00259e-312
7.00259e-312
7.00259e-312
7.00259e-312
7.00259e-312
7.00259e-312
7.00259e-312
7.00259e-312
7.00259e-312
7.00259e-312
7.00259e-312
7.00259e-312
7.00259e-312
7.00259e-312
7.00259e-312
7.00259e-312
7.00259e-312
7.00259e-312
7.00259e-312
7.00259e-312
7.00259e-312
7.00259e-312
7.00259e-312
7.00259e-312
7.00259e-312
7.00259e-312
7.00259e-312
7.00259e-312
7.00259e-312
7.00259e-312
7.00259e-312
7.00259e-312
7.00259e-312
7.00259e-312
7.00259e-312
7.00259e-312
7.00259e-312
7.00259e-312
7.00259e-312
7.00259e-312
7.00259e-312
7.00259e-312
7.00259e-312
7.00259e-312
7.00259e-312
7.00259e-312
7.00259e-312
7.00259e-312
7.00259e-312
7.00259e-312
7.00259e-312
7.00259e-312
7.00259e-312
7.00259e-312
7.00259e-312
7.00259e-312
7.00259e-312
7.00259e-312
7.00259e-312
7.00259e-312
7.00259e-312
7.00259e-312
7.00259e-312
7.00259e-312
7.00259e-312
7.00259e-312
7.00259e-312
7.00259e-312
7.00259e-312
7.00259e-312
7.00259e-312
7.00259e-312
7.00259e-312
