# vtk DataFile Version 3.0
Tree
ASCII
DATASET POLYDATA
POINTS 1732 float
40693.5 56318.5 68.45
40693.5 56318.5 2568.45
34443.5 55443.5 6443.45
33438.5 52817.5 12801.5
33820.4 53815.4 10385.4
37151.5 52322.5 13543.5
33691.7 52978.3 12457.8
34428.5 51827.5 15523.5
36737.1 52240.5 13175.9
40615.5 48857.5 17008.4
34089.6 52356.9 14113.3
29726.5 49847.5 17256.4
34089.6 52356.9 14113.3
26756.5 50094.5 13048.5
32431.6 51403.3 15307.7
33191.5 49847.5 19730.4
28424.5 50324.3 13613.2
24528.4 47372.5 15028.5
28424.5 50324.3 13613.2
26261.5 47619.5 18741.4
39949.5 49181.8 15973.6
43338.5 44649.5 17008.4
40362.4 48980.7 16615.2
40368.5 48362.5 20226.4
32544.3 50253.4 18355.8
30468.5 48857.5 20968.4
39950.1 48766.9 19089.4
37398.5 49352.5 23196.4
37637 49194.4 22122.1
34181.5 49352.5 23443.4
34525.2 51812.5 15228.9
36160.5 50094.5 17750.4
41881.2 46737 16944.5
43338.5 45639.5 19730.4
30647.7 49095.8 20297.6
27745.5 47867.5 21215.4
33580.6 54323.4 8768.51
30193.5 52443.4 10943.5
42979.6 44970.6 16852.6
43585.5 42917.5 16018.5
42689.9 46162.2 19032.7
42348.5 46629.5 21711.4
24978.2 47665.1 15312.6
22795.4 45887.5 17256.4
38516 49032 20969.7
39625.5 48362.5 23691.4
35684.4 50523.8 17416.2
35913.5 49847.5 20226.4
43269.6 43324.2 16067.9
42843.5 40689.5 14286.5
37327.8 49319.1 23046.2
36160.5 49599.5 25423.5
43250.1 45614.6 19659.5
44328.5 44154.5 20968.4
43312.8 41040.6 14425.7
43585.5 39204.5 13048.5
42641.2 46327.4 20947
43585.5 45639.5 22948.4
28397.3 48191.1 21406.9
26756.5 47619.5 22948.4
30536.6 48948.1 20713.5
29726.5 48857.5 24928.4
23424.7 46179.1 17258
22548.4 44897.5 19483.4
22993.7 45415.4 18912.4
23538.4 45392.5 20968.4
43465.4 43072 16037.3
44823.5 40937.5 17750.4
23034.6 45998.3 17257
21063.4 43659.5 16513.4
43370.6 41582.8 15119.6
43833.5 39204.5 15276.5
39478.5 48576.7 23513.5
40368.5 48362.5 26166.5
36233.2 49489.2 24850.9
34428.5 49352.5 25918.5
23460.6 45537.3 20655.8
24033.4 46382.5 22700.4
35114.3 49404.5 25512.8
34181.5 49599.5 32106.5
44054.9 44249.7 20614.3
45070.5 41184.5 21711.4
35275.5 49411.7 29756.2
39130.5 48857.5 35570.5
40332.3 48246.7 25129.6
42843.5 46877.5 26908.5
34597.2 49528.2 31213.4
27993.5 50342.5 31611.5
35275.5 49411.7 29756.2
34181.5 50094.5 38788.5
28972.7 49620.2 31787.1
23943.5 48693.4 32693.5
23867.5 46259.9 22608.5
24280.4 47619.5 27155.5
25737.6 48317.9 32394.7
21311.4 43164.5 33343.5
23033.7 44309.9 33461.8
22548.4 38462.5 36560.5
22956.6 39209.7 35654.7
24528.4 32522.5 36066.5
43497.6 45499.2 22663.7
45318.5 42917.5 25918.5
41770.7 47402.5 26867.6
44328.5 45639.5 33096.5
43533.9 46115.5 32246.3
43585.5 45639.5 39036.5
23004.4 42371.8 34295.1
24280.4 41679.5 40273.5
24809.7 41887.3 39337.3
27993.5 41432.5 45470.5
22717.6 45094.3 19266.4
19826.4 41927.5 20226.4
20734.3 42238.9 19890.4
19083.4 36234.5 20226.4
19737 37128.1 20586.1
20568.4 31037.5 23443.4
20794.3 31989 22533.3
23785.4 26087.5 22453.4
23679.6 36133.6 35844.1
26508.5 33759.5 41758.5
23508.8 45447.5 20849.6
20815.4 44649.5 23691.4
43807.6 39361 15174.3
45070.5 33017.5 15028.5
20116 39070.2 20321.7
19083.4 36729.5 26660.5
19674.1 36772.5 25364.8
21311.4 32522.5 29630.5
24645.8 32908.4 36041
27003.5 28314.5 36313.5
26038.2 33966.7 39757.8
30221.5 29304.5 42253.5
44935 41492.4 21311.2
46061.5 37472.5 20968.4
44936.5 43118.6 25864
46555.5 39947.5 30373.5
45729.8 40733.1 27969.6
46555.5 34007.5 29630.5
46090.1 35338.3 29805.8
44823.5 30542.5 34085.5
42945.4 45653.2 38249.4
41358.5 45144.5 43985.5
22467.9 29027.9 23256.5
25270.5 25592.5 27898.5
26990.6 29139 36343.8
31458.5 25344.5 37055.5
25172.2 26035 26922.4
29973.5 22127.4 29878.5
21614.7 43785.1 16739
20073.4 38709.5 16265.5
19331.8 36574.1 20363.1
21063.4 32522.5 15771.5
46378.6 34513.2 29697.1
45318.5 28314.5 29383.5
45024.3 32324.9 33384.6
43091.5 31284.5 39778.5
20873.1 32819.4 16941.9
23043.4 26829.5 15276.5
45015.6 29433.7 29780.1
41110.5 24354.4 31611.5
22873.2 27753.8 15864.6
26013.5 21879.4 16265.5
28916.7 23183.1 28428
34428.5 19899.4 26908.5
26615.2 34003.8 41431.1
28983.5 34749.5 46708.5
40354.7 48318.5 25772.5
39378.5 48857.5 30126.5
44700.8 35502.6 14398.2
46308.5 31284.5 10078.5
44026.5 45820.4 32773.4
46061.5 41679.5 35570.5
45442.8 42381.7 35473.7
45566.5 38709.5 40273.5
42088.5 45378.5 41346.9
43833.5 40937.5 44480.5
42947.6 31825.5 38910.4
40368.5 32027.5 43985.5
43050.6 41686.1 44119.7
41606.5 37719.5 47946.5
34689.1 49372.2 25764.3
32200.5 49599.5 28145.5
21300.2 44483.9 23409.1
19083.4 41927.5 27155.5
31110 49585.2 31569.1
28488.5 50342.5 36313.5
23690.4 42187.7 36211.1
24776.4 46629.5 39036.5
24968.3 45638.1 38654.7
28241.5 48114.5 41758.5
29574.3 48948.4 24748.4
28488.5 49104.5 27898.5
24710.1 46794.8 32800.2
21063.4 45639.5 29878.5
45203.4 28739.8 29534.2
43833.5 24849.4 28145.5
25233.1 25760.6 27527.6
26756.5 26087.5 31858.5
45383 39453.4 20658.1
45318.5 36977.5 17503.4
45826.4 41946.4 35533.7
46555.5 38214.5 35570.5
35118.6 49613.1 35835.1
38140.5 48362.5 40273.5
44422.6 26210.5 28015
43833.5 22622.4 22948.4
43467.6 22800.4 23599.5
41853.5 19157.4 19483.4
36494.7 48934.8 39023.4
35666.5 48609.5 44976.5
45173.3 42993.9 25897.8
46061.5 40689.5 24681.4
21633.1 30894.5 16532.6
21806.4 29799.5 12801.5
23776.3 26534.9 22566.3
26261.5 23612.4 21711.4
42504.3 46937.3 27060.8
44328.5 45392.5 28145.5
46185.5 38737 35768.5
45318.5 34749.5 37055.5
25907.1 41215.7 41644
26508.5 37967.5 43985.5
45415.5 37764.9 19033.2
45813.5 34997.5 18741.4
21965.9 43599.7 33388.5
20568.4 38709.5 32106.5
20842.2 33628.8 27825.7
22053.4 29799.5 27403.5
41602.5 45039.5 43757.2
41693.4 43943.4 47443.4
45824.7 35120.6 18834.8
46308.5 32274.5 18741.4
44235.2 32135.1 35484.4
42348.5 28562.5 36560.5
24600.5 47283.7 25059.8
26013.5 48362.5 26166.5
21049.7 39683.4 32729.7
21311.4 36234.5 34085.5
29934.9 22477.3 29393.4
32943.5 21384.4 30868.5
24204.7 46730.8 23736.1
22053.4 46629.5 26166.5
26212.1 46579.1 39834.2
27498.5 49352.5 38788.5
21421.4 32617 29097.1
23538.4 29799.5 31363.5
45893.2 37992.5 21102.3
46555.5 36234.5 22700.4
27395.7 48333.1 39342
30715.5 50589.5 39530.5
28545.2 27514 36219.8
29478.5 24849.4 34085.5
42175.7 47327.5 30613.3
41853.5 47867.5 33096.5
41967.5 31902.2 40838.9
42843.5 34502.5 42995.5
20674.6 41561.6 17047.1
19578.4 40194.5 18245.4
45228.5 39064.9 40097.1
44823.5 37719.5 42253.5
21901.5 44636.4 22379.5
20073.4 43164.5 22453.4
43657.1 27767 30808.2
42843.5 27324.5 33591.5
28818.5 49136.5 27627.4
28736.5 49352.5 29630.5
44759.5 38013.4 41948.5
43585.5 37224.5 44233.5
39677.3 48608.8 27280.3
37398.5 49352.5 28145.5
27459.4 48965.1 38998.8
26013.5 49352.5 36560.5
43002.3 31619.9 39240.3
40863.5 28809.5 39778.5
22391.8 46414.4 25614.2
20321.4 44897.5 26908.5
24090.3 25253.5 15380.4
24528.4 23859.4 13791.5
24228.4 47598.1 26970.9
23291.4 48114.5 29878.5
43913.5 25122.9 27916.2
42595.5 22622.4 26908.5
45317.7 36975.9 17900.2
45070.5 34997.5 16513.4
25739.5 46221.5 39386
26756.5 45887.5 42748.5
45435.1 41926.1 27331.4
46061.5 41927.5 29878.5
42031 38548 46705.4
41853.5 35987.5 46461.5
19909.3 35300.7 18256.4
20073.4 35244.5 15771.5
26894.7 41633.7 43380.4
27745.5 43659.5 44480.5
19782.8 38572.6 22293.7
18588.4 39947.5 24681.4
23378.9 30530.3 31460.7
25023.5 29057.5 33591.5
19491.7 38109.8 23976.3
18836.4 38462.5 25670.5
25724.4 31174.5 36180.3
27498.5 30542.5 39283.5
22230.3 45662.8 31159.8
21063.4 44402.5 31115.5
25590.5 24262.9 21664.9
26261.5 22622.4 19730.4
46291.3 39852.3 30020.1
46555.5 38709.5 31858.5
26943.5 30537.1 37879.8
28983.5 28562.5 38788.5
21309.2 44500.2 31162.2
20568.4 42669.5 31363.5
27212.1 24504.1 28122.3
28241.5 23859.4 30868.5
45680.6 42111.8 35510.9
46308.5 40937.5 33838.5
27510.7 32471 40988.9
28488.5 32274.5 43738.5
21050.9 32719.5 15962.9
21558.4 33017.5 13543.5
26036.9 22204.2 16122.5
27745.5 20147.4 16513.4
29261.9 49979 33412.3
26756.5 50342.5 34085.5
29607.6 25326.4 34592.6
32200.5 23117.4 33591.5
43035.7 46201.2 34401.9
41110.5 47619.5 36066.5
27691.4 35513.1 44859.6
27993.5 37224.5 46955.5
30259.9 49766.3 32417
30963.5 50342.5 34581.5
37831.9 50975 14851
37893.5 50342.5 16760.4
36225.9 49238.7 37150
37893.5 48857.5 37798.5
35286.9 49297.2 22738.5
33438.5 49352.5 21711.4
44633.7 44115 34836.5
44576.5 43659.5 37055.5
28522.3 32268.2 43482.5
29726.5 32027.5 45966.5
20464.4 34816.7 27321.1
21063.4 34254.5 30373.5
27818 47937.4 21263.2
26261.5 47372.5 20968.4
37720.4 48821.8 37727.3
39873.5 47867.5 38540.5
26092 47771.7 17768.2
24776.4 46629.5 18988.4
42804.5 45347.3 39824.8
44081.5 44154.5 41758.5
29656.5 48899.3 24845.6
31211.5 49104.5 26166.5
22432.5 31714.8 30834.4
22795.4 31779.5 32600.5
45658.5 38664.5 20898
46555.5 38462.5 22700.4
21601.9 31480.8 27862.3
22548.4 30047.5 29383.5
39632.4 48721 29531.2
40615.5 48362.5 31363.5
42679.5 25992.5 30671.2
42348.5 24354.4 29630.5
44920.6 32520.1 12033.2
44576.5 31532.5 11563.5
26737.3 25731.9 30957.7
27993.5 25097.5 32353.5
45958 34042.4 32043.2
46308.5 33759.5 33343.5
44224.5 44190.7 20833.8
44823.5 43659.5 22453.4
43536 41221.9 44343.4
44823.5 39947.5 42995.5
45318.2 36976.9 17654.2
44576.5 38214.5 16513.4
22703.5 38746.4 36216.3
23291.4 38957.5 38293.5
38991.6 48680.1 34108.4
40121.5 48362.5 34828.5
26298 38896.5 42958.1
26508.5 36482.5 42500.5
19047.9 38436.6 25421
19083.4 38957.5 27155.5
26285.2 30881.3 36962.1
26013.5 32027.5 39036.5
37287.2 48894.4 32986.8
37151.5 48609.5 35076.5
26378 38543.5 43348.5
27251.5 39204.5 45223.5
34367.3 49637 32747.3
33191.5 49847.5 33838.5
44910.6 30977.5 33715.3
44943.4 29193.5 33193.4
34486.1 49883.7 37109.1
32943.5 50342.5 37551.5
25363.5 47866.2 25657.4
27003.5 48114.5 24928.4
20716.8 31266.5 23332.8
21063.4 30294.5 24928.4
44319.8 41135.3 17479.7
44576.5 39204.5 18741.4
24162.3 43427.9 37727
24280.4 43659.5 39530.5
32867.2 49545 27989.8
32448.5 49599.5 29630.5
24573 32669.1 36056.8
24033.4 31532.5 34581.5
20024.7 39775.4 19879.5
19083.4 37967.5 19235.4
26313.1 36995.7 42450.9
25518.5 35492.5 41263.5
24918.6 47495.9 32701.9
23043.4 47124.5 33343.5
40394.1 48367.7 20023.3
41358.5 47619.5 20968.4
24849.3 46252.8 38891.4
[...]
CELL_DATA 1731
SCALARS radius float
LOOKUP_TABLE default
2.122e-314
100
100
100
77.463
77.463
72.0123
72.0123
74.6879
74.6879
66.9452
66.9452
64.547
64.547
57.8555
57.8555
48.2088
48.2088
46.4818
46.4818
60.0051
60.0051
57.8555
57.8555
51.8578
51.8578
53.7845
53.7845
46.4818
46.4818
62.2346
62.2346
55.7829
55.7829
43.2111
43.2111
83.3262
83.3262
53.7845
53.7845
51.8578
51.8578
41.6631
41.6631
48.2088
48.2088
57.8555
57.8555
50
50
43.2111
43.2111
50
50
46.4818
46.4818
50
50
41.6631
41.6631
41.6631
41.6631
38.7315
38.7315
36.0062
36.0062
48.2088
48.2088
37.344
37.344
48.2088
48.2088
46.4818
46.4818
41.6631
41.6631
34.7163
34.7163
40.1706
40.1706
46.4818
46.4818
32.2735
32.2735
43.2111
43.2111
31.1173
31.1173
31.1173
31.1173
26.8923
26.8923
32.2735
32.2735
24.1044
24.1044
20.8316
20.8316
17.3581
17.3581
46.4818
46.4818
41.6631
41.6631
33.4726
33.4726
18.0031
18.0031
16.1367
16.1367
34.7163
34.7163
32.2735
32.2735
25.9289
25.9289
21.6055
21.6055
15.0013
15.0013
33.4726
33.4726
43.2111
43.2111
27.8914
27.8914
24.1044
24.1044
13.4461
13.4461
13.9457
13.9457
41.6631
41.6631
41.6631
41.6631
32.2735
32.2735
25.9289
25.9289
26.8923
26.8923
18.672
18.672
12.0522
12.0522
15.5587
15.5587
34.7163
34.7163
24.1044
24.1044
25
25
20.8316
20.8316
22.4083
22.4083
22.4083
22.4083
18.0031
18.0031
14.4639
14.4639
12.9644
12.9644
41.6631
41.6631
38.7315
38.7315
32.2735
32.2735
28.9278
28.9278
23.2409
23.2409
16.1367
16.1367
21.6055
21.6055
38.7315
38.7315
28.9278
28.9278
27.8914
27.8914
17.3581
17.3581
15.5587
15.5587
36.0062
36.0062
22.4083
22.4083
21.6055
21.6055
14.4639
14.4639
37.344
37.344
26.8923
26.8923
25.9289
25.9289
19.3657
19.3657
17.3581
17.3581
23.2409
23.2409
40.1706
40.1706
20.0853
20.0853
17.3581
17.3581
38.7315
38.7315
25
25
14.4639
14.4639
33.4726
33.4726
19.3657
19.3657
20.0853
20.0853
22.4083
22.4083
31.1173
31.1173
18.0031
18.0031
26.8923
26.8923
15.5587
15.5587
13.9457
13.9457
27.8914
27.8914
14.4639
14.4639
18.672
18.672
33.4726
33.4726
13.4461
13.4461
10.8028
10.8028
38.7315
38.7315
15.5587
15.5587
31.1173
31.1173
25.9289
25.9289
30.0026
30.0026
21.6055
21.6055
33.4726
33.4726
24.1044
24.1044
38.7315
38.7315
12.9644
12.9644
15.5587
15.5587
25.9289
25.9289
16.7363
16.7363
24.1044
24.1044
18.672
18.672
32.2735
32.2735
15.0013
15.0013
36.0062
36.0062
20.8316
20.8316
23.2409
23.2409
13.4461
13.4461
26.8923
26.8923
15.5587
15.5587
25.9289
25.9289
12.5
12.5
20.8316
20.8316
16.1367
16.1367
28.9278
28.9278
11.6204
11.6204
18.672
18.672
15.0013
15.0013
27.8914
27.8914
12.9644
12.9644
20.8316
20.8316
15.0013
15.0013
25
25
9.33599
9.33599
31.1173
31.1173
10.8028
10.8028
25.9289
25.9289
66.9452
66.9452
25
25
44.8166
44.8166
30.0026
30.0026
11.6204
11.6204
20.8316
20.8316
40.1706
40.1706
24.1044
24.1044
41.6631
41.6631
24.1044
24.1044
34.7163
34.7163
16.7363
16.7363
34.7163
34.7163
19.3657
19.3657
34.7163
34.7163
20.8316
20.8316
37.344
37.344
13.4461
13.4461
22.4083
22.4083
44.8166
44.8166
20.8316
20.8316
31.1173
31.1173
16.1367
16.1367
26.8923
26.8923
12.9644
12.9644
25
25
12.0522
12.0522
28.9278
28.9278
12.0522
12.0522
28.9278
28.9278
20.0853
20.0853
24.1044
24.1044
25.9289
25.9289
20.8316
20.8316
41.6631
41.6631
16.7363
16.7363
37.344
37.344
12.9644
12.9644
30.0026
30.0026
12.5
12.5
23.2409
23.2409
50
50
15.0013
15.0013
37.344
37.344
15.0013
15.0013
20.0853
20.0853
12.5
12.5
23.2409
23.2409
33.4726
33.4726
14.4639
14.4639
28.9278
28.9278
11.2042
11.2042
21.6055
21.6055
51.8578
51.8578
18.672
18.672
37.344
37.344
13.4461
13.4461
27.8914
27.8914
15.0013
15.0013
25
25
55.7829
55.7829
19.3657
19.3657
25.9289
25.9289
16.7363
16.7363
21.6055
21.6055
50
50
20.0853
20.0853
37.344
37.344
12.9644
12.9644
15.0013
15.0013
28.9278
28.9278
10.0426
10.0426
18.672
18.672
34.7163
34.7163
25
25
15.5587
15.5587
28.9278
28.9278
16.1367
16.1367
34.7163
34.7163
80.3411
80.3411
18.672
18.672
31.1173
31.1173
20.8316
20.8316
18.672
18.672
25
25
89.6332
89.6332
18.672
18.672
25.9289
25.9289
50
50
20.0853
20.0853
26.8923
26.8923
83.3262
83.3262
18.672
18.672
23.2409
23.2409
57.8555
57.8555
17.3581
17.3581
26.8923
26.8923
64.547
64.547
16.1367
16.1367
19.3657
19.3657
38.7315
38.7315
44.8166
44.8166
19.3657
19.3657
24.1044
24.1044
43.2111
43.2111
13.9457
13.9457
17.3581
17.3581
44.8166
44.8166
15.5587
15.5587
21.6055
21.6055
30.0026
30.0026
22.4083
22.4083
25
25
38.7315
38.7315
18.672
18.672
27.8914
27.8914
37.344
37.344
14.4639
14.4639
28.9278
28.9278
26.8923
26.8923
12.0522
12.0522
28.9278
28.9278
30.0026
30.0026
18.672
18.672
19.3657
19.3657
25
25
50
50
18.672
18.672
18.0031
18.0031
33.4726
33.4726
50
50
16.1367
16.1367
27.8914
27.8914
53.7845
53.7845
14.4639
14.4639
20.0853
20.0853
32.2735
32.2735
20.0853
20.0853
17.3581
17.3581
31.1173
31.1173
50
50
16.7363
16.7363
26.8923
26.8923
55.7829
55.7829
13.9457
13.9457
21.6055
21.6055
37.344
37.344
40.1706
40.1706
16.1367
16.1367
27.8914
27.8914
30.0026
30.0026
48.2088
48.2088
11.6204
11.6204
26.8923
26.8923
17.3581
17.3581
40.1706
40.1706
13.4461
13.4461
20.8316
20.8316
27.8914
27.8914
13.9457
13.9457
21.6055
21.6055
30.0026
30.0026
33.4726
33.4726
12.9644
12.9644
18.0031
18.0031
26.8923
26.8923
30.0026
30.0026
11.6204
11.6204
15.5587
15.5587
24.1044
24.1044
30.0026
30.0026
69.4326
69.4326
18.0031
18.0031
23.2409
23.2409
31.1173
31.1173
43.2111
43.2111
10.8028
10.8028
14.4639
14.4639
21.6055
21.6055
22.4083
22.4083
20.0853
20.0853
36.0062
36.0062
64.547
64.547
15.0013
15.0013
25
25
25.9289
25.9289
32.2735
32.2735
69.4326
69.4326
15.0013
15.0013
19.3657
19.3657
22.4083
22.4083
23.2409
23.2409
25
25
31.1173
31.1173
22.4083
22.4083
19.3657
19.3657
21.6055
21.6055
27.8914
27.8914
18.672
18.672
24.1044
24.1044
21.6055
21.6055
18.0031
18.0031
19.3657
19.3657
19.3657
19.3657
24.1044
24.1044
22.4083
22.4083
22.4083
22.4083
16.7363
16.7363
15.5587
15.5587
25
25
18.0031
18.0031
15.0013
15.0013
20.0853
20.0853
15.5587
15.5587
18.672
18.672
14.4639
14.4639
20.8316
20.8316
16.7363
16.7363
22.4083
22.4083
21.6055
21.6055
14.4639
14.4639
17.3581
17.3581
15.5587
15.5587
15.0013
15.0013
13.9457
13.9457
15.5587
15.5587
13.9457
13.9457
13.4461
13.4461
12.9644
12.9644
13.9457
13.9457
11.6204
11.6204
12.5
12.5
12.5
12.5
10.4158
10.4158
14.4639
14.4639
13.4461
13.4461
9.00154
9.00154
20.0853
20.0853
60.0051
60.0051
57.8555
57.8555
55.7829
55.7829
53.7845
53.7845
62.2346
62.2346
60.0051
60.0051
55.7829
55.7829
53.7845
53.7845
55.7829
55.7829
60.0051
60.0051
62.2346
62.2346
86.4222
86.4222
86.4222
86.4222
80.3411
80.3411
62.2346
62.2346
72.0123
72.0123
62.2346
62.2346
74.6879
74.6879
51.8578
51.8578
50
50
43.2111
43.2111
51.8578
51.8578
38.7315
38.7315
43.2111
43.2111
43.2111
43.2111
44.8166
44.8166
38.7315
38.7315
48.2088
48.2088
36.0062
36.0062
44.8166
44.8166
44.8166
44.8166
44.8166
44.8166
37.344
37.344
38.7315
38.7315
32.2735
32.2735
33.4726
33.4726
33.4726
33.4726
40.1706
40.1706
38.7315
38.7315
36.0062
36.0062
25
25
33.4726
33.4726
37.344
37.344
31.1173
31.1173
27.8914
27.8914
37.344
37.344
33.4726
33.4726
28.9278
28.9278
30.0026
30.0026
30.0026
30.0026
25
25
24.1044
24.1044
23.2409
23.2409
18.0031
18.0031
20.0853
20.0853
13.4461
13.4461
11.2042
11.2042
10.0426
10.0426
53.7845
53.7845
30.0026
30.0026
26.8923
26.8923
23.2409
23.2409
23.2409
23.2409
19.3657
19.3657
19.3657
19.3657
12.9644
12.9644
14.4639
14.4639
43.2111
43.2111
30.0026
30.0026
16.7363
16.7363
23.2409
23.2409
15.5587
15.5587
13.9457
13.9457
51.8578
51.8578
32.2735
32.2735
26.8923
26.8923
17.3581
17.3581
60.0051
60.0051
40.1706
40.1706
28.9278
28.9278
20.8316
20.8316
17.3581
17.3581
92.9635
92.9635
18.0031
18.0031
18.672
18.672
16.1367
16.1367
44.8166
44.8166
25.9289
25.9289
23.2409
23.2409
16.7363
16.7363
24.1044
24.1044
69.4326
69.4326
36.0062
36.0062
15.5587
15.5587
30.0026
30.0026
20.8316
20.8316
44.8166
44.8166
13.9457
13.9457
44.8166
44.8166
18.0031
18.0031
40.1706
40.1706
20.0853
20.0853
37.344
37.344
11.2042
11.2042
16.1367
16.1367
13.9457
13.9457
48.2088
48.2088
11.2042
11.2042
11.6204
11.6204
9.68287
9.68287
12.0522
12.0522
12.5
12.5
51.8578
51.8578
96.4176
96.4176
57.8555
57.8555
40.1706
40.1706
46.4818
46.4818
46.4818
46.4818
51.8578
51.8578
41.6631
41.6631
48.2088
48.2088
48.2088
48.2088
40.1706
40.1706
37.344
37.344
38.7315
38.7315
40.1706
40.1706
41.6631
41.6631
34.7163
34.7163
36.0062
36.0062
36.0062
36.0062
40.1706
40.1706
46.4818
46.4818
46.4818
46.4818
43.2111
43.2111
33.4726
33.4726
31.1173
31.1173
30.0026
30.0026
32.2735
32.2735
31.1173
31.1173
38.7315
38.7315
33.4726
33.4726
28.9278
28.9278
34.7163
34.7163
31.1173
31.1173
25.9289
25.9289
37.344
37.344
33.4726
33.4726
25
25
28.9278
28.9278
34.7163
34.7163
30.0026
30.0026
32.2735
32.2735
40.1706
40.1706
22.4083
22.4083
34.7163
34.7163
24.1044
24.1044
36.0062
36.0062
25
25
25
25
22.4083
22.4083
21.6055
21.6055
30.0026
30.0026
23.2409
23.2409
27.8914
27.8914
20.0853
20.0853
23.2409
23.2409
26.8923
26.8923
18.0031
18.0031
23.2409
23.2409
22.4083
22.4083
16.1367
16.1367
20.0853
20.0853
27.8914
27.8914
21.6055
21.6055
20.0853
20.0853
18.0031
18.0031
21.6055
21.6055
21.6055
21.6055
12.9644
12.9644
22.4083
22.4083
25.9289
25.9289
28.9278
28.9278
25.9289
25.9289
20.0853
20.0853
27.8914
27.8914
12.5
12.5
18.672
18.672
17.3581
17.3581
19.3657
19.3657
16.7363
16.7363
20.0853
20.0853
22.4083
22.4083
20.8316
20.8316
14.4639
14.4639
16.7363
16.7363
13.4461
13.4461
17.3581
17.3581
27.8914
27.8914
26.8923
26.8923
21.6055
21.6055
15.0013
15.0013
19.3657
19.3657
18.0031
18.0031
19.3657
19.3657
19.3657
19.3657
19.3657
19.3657
17.3581
17.3581
16.1367
16.1367
18.0031
18.0031
17.3581
17.3581
18.672
18.672
26.8923
26.8923
18.672
18.672
13.4461
13.4461
26.8923
26.8923
12.9644
12.9644
23.2409
23.2409
12.0522
12.0522
18.0031
18.0031
19.3657
19.3657
12.5
12.5
10.8028
10.8028
16.1367
16.1367
13.9457
13.9457
15.5587
15.5587
13.4461
13.4461
12.9644
12.9644
11.2042
11.2042
25.9289
25.9289
12.0522
12.0522
23.2409
23.2409
8.67907
8.67907
10.4158
10.4158
10.0426
10.0426
10.4158
10.4158
22.4083
22.4083
8.36815
8.36815
25
25
12.5
12.5
13.4461
13.4461
24.1044
24.1044
8.06837
8.06837
13.9457
13.9457
23.2409
23.2409
22.4083
22.4083
21.6055
21.6055
20.8316
20.8316
7.00259e-312
7.00259e-312
7.00259e-312
7.00259e-312
7.00259e-312
7.00259e-312
7.00259e-312
7.00259e-312
7.00259e-312
7.00259e-312
7.00259e-312
7.00259e-312
7.00259e-312
7.00259e-312
7.00259e-312
7.00259e-312
7.00259e-312
7.00259e-312
7.00259e-312
7.00259e-312
7.00259e-312
7.00259e-312
7.00259e-312
7.00259e-312
7.00259e-312
7.00259e-312
7.00259e-312
7.00259e-312
7.00259e-312
7.00259e-312
7.00259e-312
7.00259e-312
7.00259e-312
7.00259e-312
7.00259e-312
7.00259e-312
7.00259e-312
7.00259e-312
7.00259e-312
7.00259e-312
7.00259e-312
7.00259e-312
7.00259e-312
7.00259e-312
7.00259e-312
7.00259e-312
7.00259e-312
7.00259e-312
7.00259e-312
7.00259e-312
7.00259e-312
7.00259e-312
7.00259e-312
7.00259e-312
7.00259e-312
7.00259e-312
7.00259e-312
7.00259e-312
7.00259e-312
7.00259e-312
7.00259e-312
7.00259e-312
7.00259e-312
7.00259e-312
7.00259e-312
7.00259e-312
7.00259e-312
7.00259e-312
7.00259e-312
7.00259e-312
7.00259e-312
7.00259e-312
7.00259e-312
7.00259e-312
7.00259e-312
7.00259e-312
7.00259e-312
7.00259e-312
7.00259e-312
7.00259e-312
7.00259e-312
7.00259e-312
7.00259e-312
7.00259e-312
7.00259e-312
7.00259e-312
7.00259e-312
7.00259e-312
7.00259e-312
7.00259e-312
7.00259e-312
7.00259e-312
7.00259e-312
7.00259e-312
7.00259e-312
7.00259e-312
7.00259e-312
7.00259e-312
7.00259e-312
7.00259e-312
7.00259e-312
7.00259e-312
7.00259e-312
7.00259e-312
7.00259e-312
7.00259e-312
7.00259e-312
7.00259e-312
7.00259e-312
7.00259e-312
7.00259e-312
7.00259e-312
7.00259e-312
7.00259e-312
7.00259e-312
7.00259e-312
7.00259e-312
7.00259e-312
7.00259e-312
7.00259e-312
7.00259e-312
7.00259e-312
7.00259e-312
7.00259e-312
7.00259e-312
7.00259e-312
7.00259e-312
7.00259e-312
7.00259e-312
7.00259e-312
7.00259e-312
7.00259e-312
7.00259e-312
7.00259e-312
7.00259e-312
7.00259e-312
7.00259e-312
7.00259e-312
7.00259e-312
7.00259e-312
7.00259e-312
7.00259e-312
7.00259e-312
7.00259e-312
7.00259e-312
7.00259e-312
7.00259e-312
7.00259e-312
7.00259e-312
7.00259e-312
7.00259e-312
7.00259e-312
7.00259e-312
7.00259e-312
7.00259e-312
7.00259e-312
7.00259e-312
7.00259e-312
7.00259e-312
7.00259e-312
7.00259e-312
7.00259e-312
7.00259e-312
7.00259e-312
7.00259e-312
7.00259e-312
7.00259e-312
7.00259e-312
7.00259e-312
7.00259e-312
7.00259e-312
7.00259e-312
7.00259e-312
7.00259e-312
7.00259e-312
7.00259e-312
7.00259e-312
7.00259e-312
7.00259e-312
7.00259e-312
7.00259e-312
7.00259e-312
7.00259e-312
7.00259e-312
7.00259e-312
7.00259e-312
7.00259e-312
7.00259e-312
7.00259e-312
7.00259e-312
7.00259e-312
7.00259e-312
7.00259e-312
7.00259e-312
7.00259e-312
7.00259e-312
7.00259e-312
7.00259e-312
7.00259e-312
7.00259e-312
7.00259e-312
7.00259e-312
7.00259e-312
7.00259e-312
7.00259e-312
7.00259e-312
7.00259e-312
7.00259e-312
7.00259e-312
7.00259e-312
7.00259e-312
7.00259e-312
7.00259e-312
7.00259e-312
7.00259e-312
7.00259e-312
7.00259e-312
7.00259e-312
7.00259e-312
7.00259e-312
7.00259e-312
7.00259e-312
7.00259e-312
7.00259e-312
7.00259e-312
7.00259e-312
7.00259e-312
7.00259e-312
7.00259e-312
7.00259e-312
7.00259e-312
7.00259e-312
7.00259e-312
7.00259e-312
7.00259e-312
7.00259e-312
7.00259e-312
7.00259e-312
7.00259e-312
7.00259e-312
7.00259e-312
7.00259e-312
7.00259e-312
7.00259e-312
7.00259e-312
7.00259e-312
7.00259e-312
7.00259e-312
7.00259e-312
7.00259e-312
7.00259e-312
7.00259e-312
7.00259e-312
7.00259e-312
7.00259e-312
7.00259e-312
7.00259e-312
7.00259e-312
7.00259e-312
7.00259e-312
7.00259e-312
7.00259e-312
7.00259e-312
7.00259e-312
7.00259e-312
7.00259e-312
7.00259e-312
7.00259e-312
7.00259e-312
7.00259e-312
7.00259e-312
7.00259e-312
7.00259e-312
7.00259e-312
7.00259e-312
7.00259e-312
7.00259e-312
7.00259e-312
7.00259e-312
7.00259e-312
7.00259e-312
7.00259e-312
7.00259e-312
7.00259e-312
7.00259e-312
7.00259e-312
7.00259e-312
7.00259e-312
7.00259e-312
7.00259e-312
7.00259e-312
7.00259e-312
7.00259e-312
7.00259e-312
7.00259e-312
7.00259e-312
7.00259e-312
7.00259e-312
7.00259e-312
7.00259e-312
7.00259e-312
7.00259e-312
7.00259e-312
7.00259e-312
7.00259e-312
7.00259e-312
7.00259e-312
7.00259e-312
7.00259e-312
7.00259e-312
7.00259e-312
7.00259e-312
7.00259e-312
7.00259e-312
7.00259e-312
7.00259e-312
7.00259e-312
7.00259e-312
7.00259e-312
7.00259e-312
7.00259e-312
7.00259e-312
7.00259e-312
7.00259e-312
7.00259e-312
7.00259e-312
7.00259e-312
7.00259e-312
7.00259e-312
7.00259e-312
7.00259e-312
7.00259e-312
7.00259e-312
7.00259e-312
7.00259e-312
7.00259e-312
7.00259e-312
7.00259e-312
7.00259e-312
7.00259e-312
7.00259e-312
7.00259e-312
7.00259e-312
7.00259e-312
7.00259e-312
7.00259e-312
7.00259e-312
7.00259e-312
7.00259e-312
7.00259e-312
7.00259e-312
7.00259e-312
7.00259e-312
7.00259e-312
7.00259e-312
7.00259e-312
7.00259e-312
7.00259e-312
7.00259e-312
7.00259e-312
7.00259e-312
7.00259e-312
7.00259e-312
7.00259e-312
7.00259e-312
7.00259e-312
7.00259e-312
7.00259e-312
7.00259e-312
7.00259e-312
7.00259e-312
7.00259e-312
7.00259e-312
7.00259e-312
7.00259e-312
7.00259e-312
7.00259e-312
7.00259e-312
7.00259e-312
7.00259e-312
7.00259e-312
7.00259e-312
7.00259e-312
7.00259e-312
7.00259e-312
7.00259e-312
7.00259e-312
7.00259e-312
7.00259e-312
7.00259e-312
7.00259e-312
7.00259e-312
7.00259e-312
7.00259e-312
7.00259e-312
7.00259e-312
7.00259e-312
7.00259e-312
7.00259e-312
7.00259e-312
7.00259e-312
7.00259e-312
7.00259e-312
7.00259e-312
7.00259e-312
7.00259e-312
7.00259e-312
7.00259e-312
7.00259e-312
7.00259e-312
7.00259e-312
7.00259e-312
7.00259e-312
7.00259e-312
7.00259e-312
7.00259e-312
7.00259e-312
7.00259e-312
7.00259e-312
7.00259e-312
7.00259e-312
7.00259e-312
7.00259e-312
7.00259e-312
7.00259e-312
7.00259e-312
7.00259e-312
7.00259e-312
7.00259e-312
