# vtk DataFile Version 3.0
Tree
ASCII
DATASET POLYDATA
POINTS 1732 float
40693.5 56318.5 68.45
40693.5 56318.5 2568.45
34443.5 55443.5 6443.45
34181.5 53559.5 10821.5
34281.1 54275.4 9157.84
34181.5 52569.5 14038.5
33944.1 52489.7 13680
33191.5 49847.5 19730.4
33597.9 51274.3 16463.2
39130.5 49104.5 19730.4
38156.5 49170.7 18605.8
42843.5 45392.5 17998.4
34281.1 54275.4 9157.84
28983.5 50837.5 13048.5
29215.3 51108.2 12391.9
25270.5 48857.5 14038.5
29071.6 50940.4 12799
28736.5 49352.5 17256.4
34091.3 52539.2 13902.3
37645.5 51827.5 14780.5
28480.5 49538.6 16260.8
26261.5 47619.5 18741.4
32952.5 50208.3 18760.2
30468.5 48857.5 20968.4
27282.2 48502.3 17600.3
24280.4 46877.5 16265.5
38760.4 49129.6 19303
37398.5 49352.5 23196.4
38989.9 49114.1 19568
41358.5 47619.5 20968.4
27282.2 48502.3 17600.3
27745.5 47867.5 21215.4
37424.8 49274.5 21868.3
34181.5 49352.5 23443.4
41551.4 45908.5 17638.4
43585.5 42917.5 16018.5
42932.4 43413.2 16213.4
42843.5 40689.5 14286.5
42352.5 45588.6 17861.6
43833.5 44897.5 20473.4
43211.3 45312.6 19836.5
43091.5 46134.5 22453.4
25421.1 47494.9 16772.7
22795.4 45392.5 18741.4
37932.3 49219.5 20893.5
39625.5 48362.5 23691.4
33729.5 51736.1 15405.6
30963.5 51084.5 16265.5
36298.1 50239.3 17356.8
38883.5 50342.5 16265.5
23194.7 45400.6 18225.5
19083.4 40194.5 19978.4
37236.5 49353.5 22937.1
36160.5 49599.5 25423.5
27357.4 47950.4 20833
26756.5 47619.5 22948.4
27032.9 47771.7 21975.3
29726.5 48857.5 24928.4
43072.6 40927.4 14402.3
43585.5 39204.5 13048.5
38313.2 49178.1 20161.9
35913.5 49847.5 20226.4
26861.5 47677.3 22578.6
21063.4 45392.5 25423.5
43597.1 45055.2 20231.4
44823.5 42917.5 20721.4
20193.5 41011.2 20128.8
19083.4 35987.5 24433.4
43337.3 43105.8 16092.6
44823.5 40937.5 17750.4
36519.3 49459.2 25290
35418.5 49352.5 32106.5
19695 36546.9 23513.8
21311.4 30294.5 26166.5
43089.1 46016.6 22370.5
42843.5 46877.5 26908.5
19505.2 40504.8 20035.6
20073.4 35244.5 15771.5
20376.8 35403.2 16304.4
21806.4 29799.5 12801.5
44631 43044.2 20589.1
45813.5 39699.5 20721.4
23023.4 45949.6 25224.7
20568.4 43659.5 31115.5
21057.5 32413.5 25965.6
23538.4 29799.5 31363.5
44750.3 42965.6 20671.1
45318.5 42917.5 25918.5
36062.2 49312 31062.9
37893.5 48857.5 37798.5
37191.2 49014.8 36811.5
36408.5 49104.5 43738.5
29557.3 48717.8 24884.2
32200.5 49599.5 28145.5
35663.1 49337.1 31709.9
29973.5 50589.5 35323.5
23319.1 29985.6 29975.4
26756.5 26087.5 31858.5
44253.7 41315.5 17002.9
45318.5 36977.5 17503.4
37626.6 48917.3 37423.4
43091.5 46877.5 37303.5
21583.1 31102.5 14374
23785.4 25097.5 15276.5
26590.6 26724.2 31592.7
32200.5 23117.4 33591.5
44911.1 37941.4 16981.8
45070.5 33017.5 15028.5
30920.6 49870.3 34763.6
25765.5 47867.5 38293.5
23455.1 29870.2 30836
23291.4 33759.5 36560.5
23786 32709.4 35742.6
26508.5 33759.5 41758.5
42763.8 46878.6 26789.6
42348.5 47619.5 30373.5
21427.7 43768 29192.5
20568.4 38709.5 32106.5
23479.3 33360.5 36249.7
23291.4 38957.5 38293.5
23537.4 26372.3 15656.4
26261.5 22622.4 19730.4
28356.9 48399.8 24297.9
28736.5 49352.5 29630.5
23203.4 38035.3 37395.2
22300.4 43164.5 35818.5
21214.9 31099.7 26090.2
23785.4 26087.5 22453.4
23258 38607.1 37952.1
26261.5 39699.5 43243.5
25639.8 32600.2 38759.7
30221.5 29304.5 42253.5
45598.1 40117.5 20962.7
46555.5 36234.5 22700.4
46191.7 37710 22040.1
46555.5 36977.5 28888.5
46422.7 37729.7 27732.4
46308.5 40937.5 33838.5
46270 39759.5 32917.6
45813.5 38709.5 39036.5
45626.8 38384 37310.7
43338.5 33759.5 42006.5
43976 35055 39675.4
40863.5 28809.5 39778.5
29619.9 24776.5 32672
32200.5 20889.4 28641.5
21328.6 43096.2 19705.2
19083.4 42422.5 22948.4
46453.2 36979.9 28784
46308.5 34254.5 32353.5
40443 47536.6 37988.4
44081.5 44154.5 41758.5
42960.5 44582.6 41260.2
43091.5 40689.5 45470.5
26585.5 33284.5 41298
29230.5 33264.5 45966.5
45118.7 34533 15088.4
45813.5 31532.5 10573.5
46363.5 35290.1 30997.1
45318.5 29552.5 30126.5
45167.7 30071.7 30197
43585.5 24849.4 29383.5
25347.4 27963.5 30978.1
27003.5 28314.5 36313.5
27871.9 48774.4 27339.7
23943.5 48693.4 32693.5
45006.6 36373.5 16110.8
46308.5 32274.5 18741.4
46128.6 34401.6 32112.1
44823.5 31532.5 35570.5
44161.9 26679.2 29005.6
42843.5 21879.4 24185.4
42988.2 22653.2 24411.3
41853.5 19157.4 19483.4
25226.4 24047.4 18182.3
27745.5 20147.4 16513.4
19801.9 42568.7 22672.8
19083.4 42174.5 25670.5
20539.7 33984.2 25033.9
21063.4 34254.5 30373.5
45260.8 31513.5 30952.3
42843.5 27324.5 33591.5
27708.5 48291.3 37681.7
26756.5 45887.5 42748.5
25533.3 47237.5 23899.2
24776.4 47867.5 26908.5
19893 38076.3 21667.3
19578.4 33759.5 20721.4
43145.8 33970.5 41467.7
40368.5 32027.5 43985.5
42506.3 47338 29011.6
39378.5 48857.5 30126.5
20982.7 39230.5 31961.2
21311.4 36234.5 34085.5
43265.3 33839.7 41801.7
41853.5 35987.5 46461.5
28225.4 33272.1 44192.5
27993.5 37224.5 46955.5
45344.7 42655.7 25348.1
46061.5 41927.5 29878.5
32551.8 49784.4 34362.2
30715.5 50589.5 39530.5
23319.1 29985.6 29975.4
25270.5 25592.5 27898.5
31285.5 49248.2 27795.2
31953.5 49352.5 30621.5
45579.7 38404.9 38606.7
44823.5 37719.5 42253.5
28332.3 25884.1 32665.9
31458.5 25592.5 36560.5
42408.5 47512.5 29856
43585.5 46382.5 32353.5
43620.3 28964 33083.4
42348.5 28562.5 36560.5
42818.5 43441.9 43262.7
41693.4 43943.4 47443.4
42506.3 47338 29011.6
40368.5 48609.5 33343.5
26503.8 48028.5 38061
24776.4 44649.5 39530.5
23853.7 46057.4 17361.1
21063.4 43659.5 16513.4
19449.8 41925.1 24349.5
19083.4 38957.5 27155.5
43804.6 25544.7 29239.9
41110.5 24354.4 31611.5
39291.7 48636.7 23489.1
40368.5 48362.5 26166.5
46112.5 40484.9 33711
45070.5 42669.5 36808.5
25577.6 40181.5 41966.1
27251.5 42669.5 44728.5
25123.1 48480.2 29530.3
23291.4 48114.5 29878.5
23837.4 25266.5 15270.9
24776.4 23117.4 14286.5
43070.7 46437.8 25786.3
44328.5 45392.5 28145.5
30333.4 50316.2 35110.8
26756.5 50342.5 34085.5
26537.8 33579 41583.5
26508.5 36482.5 42500.5
31423.8 49411.5 29544.8
30221.5 50094.5 31611.5
42123.2 35957 45759
41606.5 37719.5 47946.5
30330.4 49890.2 30888.1
27993.5 50342.5 31611.5
32205 21545.1 29123.6
34428.5 19899.4 26908.5
43462.1 46384.8 32261
44328.5 45392.5 34333.5
27345 31145.1 39707.1
28983.5 28562.5 38788.5
43006.7 46883.1 31744.1
42843.5 47124.5 34581.5
26215.4 39760.3 43175.8
27251.5 39204.5 45223.5
24486.1 48595.3 31238.4
22300.4 46877.5 32106.5
26693.4 26329.4 31757.5
28241.5 23859.4 30868.5
37067.5 49096.8 34625.8
39130.5 48857.5 35570.5
38221.1 50098.5 16751.5
40615.5 48857.5 17008.4
19315.8 36200.1 24084
19083.4 36729.5 26660.5
29334.1 26078.8 34829.7
29230.5 26829.5 37055.5
20973.2 43628.2 30754.4
21311.4 43164.5 33343.5
32135.9 52790.1 11574.8
31706.5 52322.5 13295.5
28595.4 48992.5 36503.4
26013.5 49352.5 36560.5
22947.1 45395.6 18545.4
23538.4 45392.5 20968.4
45981 38715.3 34896
45813.5 35739.5 36066.5
33123.3 49933.3 19590.5
33438.5 49352.5 21711.4
37144.2 49046 35980.9
34923.5 49847.5 37551.5
26329.2 47719.3 18467.9
24776.4 46629.5 18988.4
19801.9 34544 21219.3
20568.4 31037.5 22453.4
43130.1 41556.2 15158.6
43833.5 39204.5 15276.5
45484.2 33165.1 34602.9
45318.5 33264.5 37055.5
36296.8 49546.2 25372.8
34428.5 49352.5 25918.5
22253 29048 15488.8
22300.4 27819.5 17256.4
39697.6 48549.7 25223.1
38883.5 48857.5 27651.5
45148.7 38326.1 40789.3
44823.5 39947.5 42995.5
20748.4 42895.7 20832.8
21311.4 44154.5 22453.4
27629.3 47664.9 40039.3
28241.5 48114.5 41758.5
45230.6 41229.6 20820.8
46061.5 40194.5 23443.4
43080.8 35295.6 43432.4
43585.5 37224.5 44233.5
21454 45369.6 25265.9
20073.4 44154.5 24681.4
25173.2 44694.1 39312.3
24528.4 42422.5 40025.5
20806.4 42137.1 19900
19578.4 40194.5 17008.4
42906.5 44149.1 42021.2
41358.5 45144.5 43985.5
19873.5 38777.8 18084.5
20073.4 38709.5 16265.5
24390.5 32965.5 36983.6
24528.4 34749.5 38788.5
46307.7 38551.3 26047.7
46308.5 39699.5 27651.5
26519.6 35379.2 42152
26756.5 35739.5 44233.5
21865.1 45361.2 28012.5
21063.4 45639.5 29878.5
31472.9 22722.9 30609.8
33438.5 21879.4 30868.5
19704.1 39572.2 18982
19083.4 36977.5 19483.4
25733.6 23487.7 19218.2
26261.5 23612.4 21711.4
19339.6 42255.2 25135.4
19578.4 43659.5 26660.5
30311.9 23377.6 31229.9
29973.5 22127.4 29878.5
21101.7 43452 31738.2
21806.4 45144.5 33096.5
31675.6 51087.3 16206.6
30715.5 49847.5 17503.4
41927.1 46296.4 39067.1
43585.5 45639.5 39036.5
34342.8 54719.3 8126.37
32193.5 53193.4 8693.45
45213.3 32357.1 34791.7
44823.5 30542.5 34085.5
44607 41081.1 17466.4
44576.5 39204.5 18741.4
20991.3 33904.3 28931.8
21558.4 32274.5 30373.5
23487.8 45670.7 20678
24033.4 46382.5 22700.4
44821.3 31717.1 35505.8
43833.5 30789.5 37055.5
44844.3 43293.6 22777.6
44576.5 44402.5 24185.4
21957 29495.1 24599.1
21558.4 29304.5 22453.4
24798.7 47577.7 25889.8
23043.4 47372.5 27155.5
21675 30104.9 25165.7
23043.4 28067.5 25918.5
19768.5 35801.3 21015.2
19578.4 34997.5 19978.4
31649.1 52310.1 12934.9
30468.5 51332.5 14038.5
22322.9 40435.1 36090.2
21558.4 41184.5 35076.5
20962.4 43374.1 21448.7
22053.4 44649.5 21215.4
43257.6 24129.9 27160
42595.5 22622.4 26908.5
46013.5 41423.6 28146.2
46308.5 40689.5 28888.5
29214.7 29844.8 41154.3
30221.5 28562.5 40768.5
39325.4 48141.9 37476.4
41110.5 47619.5 36066.5
40318.4 47938.3 18043.4
41606.5 47867.5 17750.4
42897 21386.2 21618.8
43338.5 21384.4 20226.4
21594.5 43888.6 16994.1
20568.4 42422.5 17503.4
41499.8 32434.3 42430.2
40615.5 31284.5 42500.5
19214 42181.1 25605.5
19083.4 41927.5 27155.5
36297.6 51972.6 14611.9
36903.5 51084.5 15771.5
45268.9 42659.7 36326
44823.5 44154.5 37798.5
27598.1 48089.8 23387.4
27003.5 48114.5 24928.4
42755.6 21722.8 22867.1
41606.5 19899.4 21958.4
19710 43556.8 26241.9
20321.4 44897.5 26908.5
25982.2 39690.5 42769
26508.5 37967.5 43985.5
21126.4 33498.1 14739.4
21558.4 33017.5 13543.5
34243.2 54003.4 9790.03
35666.5 53312.5 10573.5
30740.4 50257.7 38290.1
29230.5 50094.5 39530.5
35287.9 49441.6 25667.5
34923.5 49599.5 27403.5
23924.7 27841.7 28459
23785.4 27077.5 27403.5
19177.1 39926.9 25965.5
18836.4 38462.5 25670.5
31684.7 52317.8 13158.5
32200.5 51827.5 14533.5
35248.7 49724.3 37520.9
34181.5 50094.5 38788.5
25077.9 47448.4 25133.4
26013.5 48362.5 26166.5
[...]
CELL_DATA 1731
SCALARS radius float
LOOKUP_TABLE default
2.122e-314
100
100
100
86.4222
86.4222
69.4326
69.4326
57.8555
57.8555
48.2088
48.2088
83.3262
83.3262
66.9452
66.9452
64.547
64.547
66.9452
66.9452
57.8555
57.8555
51.8578
51.8578
53.7845
53.7845
46.4818
46.4818
44.8166
44.8166
51.8578
51.8578
40.1706
40.1706
44.8166
44.8166
40.1706
40.1706
43.2111
43.2111
40.1706
40.1706
51.8578
51.8578
41.6631
41.6631
62.2346
62.2346
51.8578
51.8578
46.4818
46.4818
38.7315
38.7315
48.2088
48.2088
46.4818
46.4818
37.344
37.344
43.2111
43.2111
43.2111
43.2111
38.7315
38.7315
37.344
37.344
38.7315
38.7315
36.0062
36.0062
33.4726
33.4726
36.0062
36.0062
36.0062
36.0062
30.0026
30.0026
36.0062
36.0062
37.344
37.344
31.1173
31.1173
34.7163
34.7163
27.8914
27.8914
20.8316
20.8316
37.344
37.344
26.8923
26.8923
25
25
34.7163
34.7163
20.0853
20.0853
23.2409
23.2409
21.6055
21.6055
32.2735
32.2735
22.4083
22.4083
24.1044
24.1044
20.8316
20.8316
31.1173
31.1173
33.4726
33.4726
20.0853
20.0853
20.0853
20.0853
40.1706
40.1706
16.1367
16.1367
30.0026
30.0026
15.5587
15.5587
19.3657
19.3657
31.1173
31.1173
27.8914
27.8914
25
25
22.4083
22.4083
20.0853
20.0853
19.3657
19.3657
20.0853
20.0853
41.6631
41.6631
23.2409
23.2409
17.3581
17.3581
14.4639
14.4639
18.0031
18.0031
28.9278
28.9278
18.672
18.672
16.7363
16.7363
23.2409
23.2409
37.344
37.344
31.1173
31.1173
17.3581
17.3581
14.4639
14.4639
11.2042
11.2042
19.3657
19.3657
36.0062
36.0062
32.2735
32.2735
17.3581
17.3581
18.672
18.672
41.6631
41.6631
34.7163
34.7163
18.0031
18.0031
30.0026
30.0026
30.0026
30.0026
17.3581
17.3581
15.5587
15.5587
26.8923
26.8923
24.1044
24.1044
24.1044
24.1044
33.4726
33.4726
19.3657
19.3657
20.8316
20.8316
28.9278
28.9278
16.1367
16.1367
12.9644
12.9644
28.9278
28.9278
18.0031
18.0031
48.2088
48.2088
33.4726
33.4726
13.9457
13.9457
40.1706
40.1706
21.6055
21.6055
12.5
12.5
34.7163
34.7163
19.3657
19.3657
33.4726
33.4726
21.6055
21.6055
16.7363
16.7363
31.1173
31.1173
15.5587
15.5587
30.0026
30.0026
16.1367
16.1367
25.9289
25.9289
16.7363
16.7363
26.8923
26.8923
11.2042
11.2042
33.4726
33.4726
20.8316
20.8316
23.2409
23.2409
48.2088
48.2088
32.2735
32.2735
19.3657
19.3657
30.0026
30.0026
77.463
77.463
20.8316
20.8316
44.8166
44.8166
20.8316
20.8316
48.2088
48.2088
21.6055
21.6055
50
50
30.0026
30.0026
38.7315
38.7315
15.0013
15.0013
34.7163
34.7163
21.6055
21.6055
37.344
37.344
16.7363
16.7363
38.7315
38.7315
16.7363
16.7363
32.2735
32.2735
16.1367
16.1367
36.0062
36.0062
15.5587
15.5587
38.7315
38.7315
13.4461
13.4461
32.2735
32.2735
20.0853
20.0853
26.8923
26.8923
15.0013
15.0013
34.7163
34.7163
17.3581
17.3581
33.4726
33.4726
18.0031
18.0031
32.2735
32.2735
18.672
18.672
27.8914
27.8914
57.8555
57.8555
16.7363
16.7363
89.6332
89.6332
14.4639
14.4639
33.4726
33.4726
26.8923
26.8923
43.2111
43.2111
13.9457
13.9457
31.1173
31.1173
26.8923
26.8923
38.7315
38.7315
27.8914
27.8914
31.1173
31.1173
72.0123
72.0123
15.0013
15.0013
36.0062
36.0062
12.9644
12.9644
25
25
16.1367
16.1367
18.672
18.672
46.4818
46.4818
10.4158
10.4158
44.8166
44.8166
16.1367
16.1367
31.1173
31.1173
60.0051
60.0051
20.0853
20.0853
43.2111
43.2111
10.8028
10.8028
28.9278
28.9278
11.6204
11.6204
26.8923
26.8923
80.3411
80.3411
22.4083
22.4083
33.4726
33.4726
22.4083
22.4083
31.1173
31.1173
69.4326
69.4326
20.8316
20.8316
40.1706
40.1706
18.0031
18.0031
36.0062
36.0062
12.0522
12.0522
20.8316
20.8316
50
50
23.2409
23.2409
40.1706
40.1706
14.4639
14.4639
22.4083
22.4083
19.3657
19.3657
25.9289
25.9289
33.4726
33.4726
15.5587
15.5587
32.2735
32.2735
43.2111
43.2111
18.672
18.672
30.0026
30.0026
15.0013
15.0013
25.9289
25.9289
34.7163
34.7163
15.5587
15.5587
31.1173
31.1173
48.2088
48.2088
18.0031
18.0031
31.1173
31.1173
18.0031
18.0031
32.2735
32.2735
28.9278
28.9278
23.2409
23.2409
27.8914
27.8914
31.1173
31.1173
16.1367
16.1367
25
25
46.4818
46.4818
30.0026
30.0026
31.1173
31.1173
20.0853
20.0853
21.6055
21.6055
38.7315
38.7315
14.4639
14.4639
26.8923
26.8923
25.9289
25.9289
14.4639
14.4639
19.3657
19.3657
25.9289
25.9289
32.2735
32.2735
25.9289
25.9289
31.1173
31.1173
12.5
12.5
13.4461
13.4461
28.9278
28.9278
15.0013
15.0013
16.1367
16.1367
26.8923
26.8923
64.547
64.547
14.4639
14.4639
36.0062
36.0062
48.2088
48.2088
17.3581
17.3581
26.8923
26.8923
80.3411
80.3411
28.9278
28.9278
25.9289
25.9289
41.6631
41.6631
27.8914
27.8914
27.8914
27.8914
16.7363
16.7363
20.0853
20.0853
24.1044
24.1044
43.2111
43.2111
25
25
32.2735
32.2735
41.6631
41.6631
17.3581
17.3581
25
25
28.9278
28.9278
16.1367
16.1367
20.0853
20.0853
32.2735
32.2735
18.0031
18.0031
25.9289
25.9289
23.2409
23.2409
50
50
23.2409
23.2409
32.2735
32.2735
38.7315
38.7315
11.6204
11.6204
18.0031
18.0031
43.2111
43.2111
25
25
31.1173
31.1173
34.7163
34.7163
92.9635
92.9635
20.0853
20.0853
31.1173
31.1173
34.7163
34.7163
18.672
18.672
25
25
24.1044
24.1044
37.344
37.344
18.0031
18.0031
27.8914
27.8914
24.1044
24.1044
37.344
37.344
11.6204
11.6204
18.672
18.672
31.1173
31.1173
25.9289
25.9289
72.0123
72.0123
11.6204
11.6204
23.2409
23.2409
40.1706
40.1706
55.7829
55.7829
12.0522
12.0522
16.7363
16.7363
25
25
38.7315
38.7315
74.6879
74.6879
17.3581
17.3581
20.8316
20.8316
30.0026
30.0026
44.8166
44.8166
18.0031
18.0031
14.4639
14.4639
28.9278
28.9278
30.0026
30.0026
36.0062
36.0062
15.0013
15.0013
18.672
18.672
31.1173
31.1173
31.1173
31.1173
34.7163
34.7163
34.7163
34.7163
72.0123
72.0123
13.4461
13.4461
28.9278
28.9278
21.6055
21.6055
31.1173
31.1173
37.344
37.344
74.6879
74.6879
25.9289
25.9289
18.672
18.672
18.672
18.672
30.0026
30.0026
30.0026
30.0026
15.5587
15.5587
27.8914
27.8914
16.1367
16.1367
13.9457
13.9457
15.0013
15.0013
18.0031
18.0031
33.4726
33.4726
25
25
27.8914
27.8914
55.7829
55.7829
17.3581
17.3581
26.8923
26.8923
27.8914
27.8914
13.4461
13.4461
10.0426
10.0426
15.5587
15.5587
12.5
12.5
16.7363
16.7363
25
25
15.5587
15.5587
25.9289
25.9289
18.672
18.672
15.0013
15.0013
22.4083
22.4083
19.3657
19.3657
13.4461
13.4461
26.8923
26.8923
15.5587
15.5587
12.5
12.5
13.9457
13.9457
15.5587
15.5587
21.6055
21.6055
15.5587
15.5587
19.3657
19.3657
18.672
18.672
17.3581
17.3581
22.4083
22.4083
17.3581
17.3581
23.2409
23.2409
19.3657
19.3657
10.8028
10.8028
20.0853
20.0853
16.1367
16.1367
17.3581
17.3581
18.672
18.672
15.0013
15.0013
19.3657
19.3657
15.5587
15.5587
16.7363
16.7363
18.0031
18.0031
64.547
64.547
66.9452
66.9452
69.4326
69.4326
55.7829
55.7829
62.2346
62.2346
60.0051
60.0051
62.2346
62.2346
83.3262
83.3262
77.463
77.463
48.2088
48.2088
50
50
46.4818
46.4818
43.2111
43.2111
38.7315
38.7315
50
50
36.0062
36.0062
37.344
37.344
36.0062
36.0062
37.344
37.344
37.344
37.344
33.4726
33.4726
33.4726
33.4726
32.2735
32.2735
37.344
37.344
25
25
30.0026
30.0026
28.9278
28.9278
25
25
22.4083
22.4083
31.1173
31.1173
30.0026
30.0026
20.8316
20.8316
23.2409
23.2409
25.9289
25.9289
19.3657
19.3657
18.0031
18.0031
18.672
18.672
13.9457
13.9457
11.2042
11.2042
18.672
18.672
18.0031
18.0031
60.0051
60.0051
41.6631
41.6631
32.2735
32.2735
40.1706
40.1706
28.9278
28.9278
15.5587
15.5587
16.7363
16.7363
10.4158
10.4158
12.0522
12.0522
18.672
18.672
60.0051
60.0051
46.4818
46.4818
38.7315
38.7315
19.3657
19.3657
18.0031
18.0031
13.4461
13.4461
50
50
64.547
64.547
50
50
33.4726
33.4726
24.1044
24.1044
19.3657
19.3657
20.8316
20.8316
30.0026
30.0026
41.6631
41.6631
25
25
25.9289
25.9289
16.7363
16.7363
96.4176
96.4176
44.8166
44.8166
22.4083
22.4083
18.0031
18.0031
26.8923
26.8923
80.3411
80.3411
44.8166
44.8166
28.9278
28.9278
17.3581
17.3581
53.7845
53.7845
20.0853
20.0853
25.9289
25.9289
46.4818
46.4818
28.9278
28.9278
17.3581
17.3581
53.7845
53.7845
20.8316
20.8316
17.3581
17.3581
41.6631
41.6631
13.9457
13.9457
50
50
14.4639
14.4639
69.4326
69.4326
15.5587
15.5587
74.6879
74.6879
24.1044
24.1044
55.7829
55.7829
15.0013
15.0013
38.7315
38.7315
22.4083
22.4083
38.7315
38.7315
18.0031
18.0031
36.0062
36.0062
16.7363
16.7363
37.344
37.344
15.0013
15.0013
37.344
37.344
12.9644
12.9644
32.2735
32.2735
17.3581
17.3581
32.2735
32.2735
36.0062
36.0062
18.672
18.672
30.0026
30.0026
24.1044
24.1044
27.8914
27.8914
25.9289
25.9289
21.6055
21.6055
48.2088
48.2088
44.8166
44.8166
44.8166
44.8166
40.1706
40.1706
46.4818
46.4818
44.8166
44.8166
36.0062
36.0062
51.8578
51.8578
44.8166
44.8166
34.7163
34.7163
41.6631
41.6631
33.4726
33.4726
25.9289
25.9289
34.7163
34.7163
32.2735
32.2735
50
50
34.7163
34.7163
36.0062
36.0062
41.6631
41.6631
43.2111
43.2111
34.7163
34.7163
34.7163
34.7163
27.8914
27.8914
30.0026
30.0026
40.1706
40.1706
23.2409
23.2409
24.1044
24.1044
28.9278
28.9278
25.9289
25.9289
27.8914
27.8914
32.2735
32.2735
32.2735
32.2735
26.8923
26.8923
27.8914
27.8914
27.8914
27.8914
26.8923
26.8923
25
25
26.8923
26.8923
34.7163
34.7163
25.9289
25.9289
33.4726
33.4726
16.1367
16.1367
30.0026
30.0026
30.0026
30.0026
33.4726
33.4726
28.9278
28.9278
13.9457
13.9457
28.9278
28.9278
15.0013
15.0013
13.4461
13.4461
27.8914
27.8914
20.0853
20.0853
19.3657
19.3657
28.9278
28.9278
14.4639
14.4639
22.4083
22.4083
16.1367
16.1367
16.1367
16.1367
9.68287
9.68287
19.3657
19.3657
13.9457
13.9457
15.5587
15.5587
18.672
18.672
12.0522
12.0522
14.4639
14.4639
15.5587
15.5587
18.0031
18.0031
14.4639
14.4639
10.4158
10.4158
12.5
12.5
12.9644
12.9644
13.4461
13.4461
18.672
18.672
18.672
18.672
19.3657
19.3657
14.4639
14.4639
10.0426
10.0426
10.0426
10.0426
16.7363
16.7363
12.0522
12.0522
17.3581
17.3581
20.8316
20.8316
12.9644
12.9644
12.5
12.5
21.6055
21.6055
13.9457
13.9457
18.672
18.672
18.672
18.672
10.8028
10.8028
12.9644
12.9644
28.9278
28.9278
12.5
12.5
12.0522
12.0522
11.2042
11.2042
16.1367
16.1367
10.0426
10.0426
15.5587
15.5587
16.1367
16.1367
13.4461
13.4461
10.4158
10.4158
14.4639
14.4639
17.3581
17.3581
11.6204
11.6204
13.9457
13.9457
15.0013
15.0013
21.6055
21.6055
12.0522
12.0522
19.3657
19.3657
11.6204
11.6204
11.2042
11.2042
15.5587
15.5587
15.5587
15.5587
13.9457
13.9457
15.0013
15.0013
9.33599
9.33599
15.0013
15.0013
16.7363
16.7363
14.4639
14.4639
14.4639
14.4639
9.68287
9.68287
15.0013
15.0013
16.7363
16.7363
15.5587
15.5587
14.4639
14.4639
10.0426
10.0426
17.3581
17.3581
13.9457
13.9457
14.4639
14.4639
13.4461
13.4461
12.9644
12.9644
7.00259e-312
7.00259e-312
7.00259e-312
7.00259e-312
7.00259e-312
7.00259e-312
7.00259e-312
7.00259e-312
7.00259e-312
7.00259e-312
7.00259e-312
7.00259e-312
7.00259e-312
7.00259e-312
7.00259e-312
7.00259e-312
7.00259e-312
7.00259e-312
7.00259e-312
7.00259e-312
7.00259e-312
7.00259e-312
7.00259e-312
7.00259e-312
7.00259e-312
7.00259e-312
7.00259e-312
7.00259e-312
7.00259e-312
7.00259e-312
7.00259e-312
7.00259e-312
7.00259e-312
7.00259e-312
7.00259e-312
7.00259e-312
7.00259e-312
7.00259e-312
7.00259e-312
7.00259e-312
7.00259e-312
7.00259e-312
7.00259e-312
7.00259e-312
7.00259e-312
7.00259e-312
7.00259e-312
7.00259e-312
7.00259e-312
7.00259e-312
7.00259e-312
7.00259e-312
7.00259e-312
7.00259e-312
7.00259e-312
7.00259e-312
7.00259e-312
7.00259e-312
7.00259e-312
7.00259e-312
7.00259e-312
7.00259e-312
7.00259e-312
7.00259e-312
7.00259e-312
7.00259e-312
7.00259e-312
7.00259e-312
7.00259e-312
7.00259e-312
7.00259e-312
7.00259e-312
7.00259e-312
7.00259e-312
7.00259e-312
7.00259e-312
7.00259e-312
7.00259e-312
7.00259e-312
7.00259e-312
7.00259e-312
7.00259e-312
7.00259e-312
7.00259e-312
7.00259e-312
7.00259e-312
7.00259e-312
7.00259e-312
7.00259e-312
7.00259e-312
7.00259e-312
7.00259e-312
7.00259e-312
7.00259e-312
7.00259e-312
7.00259e-312
7.00259e-312
7.00259e-312
7.00259e-312
7.00259e-312
7.00259e-312
7.00259e-312
7.00259e-312
7.00259e-312
7.00259e-312
7.00259e-312
7.00259e-312
7.00259e-312
7.00259e-312
7.00259e-312
7.00259e-312
7.00259e-312
7.00259e-312
7.00259e-312
7.00259e-312
7.00259e-312
7.00259e-312
7.00259e-312
7.00259e-312
7.00259e-312
7.00259e-312
7.00259e-312
7.00259e-312
7.00259e-312
7.00259e-312
7.00259e-312
7.00259e-312
7.00259e-312
7.00259e-312
7.00259e-312
7.00259e-312
7.00259e-312
7.00259e-312
7.00259e-312
7.00259e-312
7.00259e-312
7.00259e-312
7.00259e-312
7.00259e-312
7.00259e-312
7.00259e-312
7.00259e-312
7.00259e-312
7.00259e-312
7.00259e-312
7.00259e-312
7.00259e-312
7.00259e-312
7.00259e-312
7.00259e-312
7.00259e-312
7.00259e-312
7.00259e-312
7.00259e-312
7.00259e-312
7.00259e-312
7.00259e-312
7.00259e-312
7.00259e-312
7.00259e-312
7.00259e-312
7.00259e-312
7.00259e-312
7.00259e-312
7.00259e-312
7.00259e-312
7.00259e-312
7.00259e-312
7.00259e-312
7.00259e-312
7.00259e-312
7.00259e-312
7.00259e-312
7.00259e-312
7.00259e-312
7.00259e-312
7.00259e-312
7.00259e-312
7.00259e-312
7.00259e-312
7.00259e-312
7.00259e-312
7.00259e-312
7.00259e-312
7.00259e-312
7.00259e-312
7.00259e-312
7.00259e-312
7.00259e-312
7.00259e-312
7.00259e-312
7.00259e-312
7.00259e-312
7.00259e-312
7.00259e-312
7.00259e-312
7.00259e-312
7.00259e-312
7.00259e-312
7.00259e-312
7.00259e-312
7.00259e-312
7.00259e-312
7.00259e-312
7.00259e-312
7.00259e-312
7.00259e-312
7.00259e-312
7.00259e-312
7.00259e-312
7.00259e-312
7.00259e-312
7.00259e-312
7.00259e-312
7.00259e-312
7.00259e-312
7.00259e-312
7.00259e-312
7.00259e-312
7.00259e-312
7.00259e-312
7.00259e-312
7.00259e-312
7.00259e-312
7.00259e-312
7.00259e-312
7.00259e-312
7.00259e-312
7.00259e-312
7.00259e-312
7.00259e-312
7.00259e-312
7.00259e-312
7.00259e-312
7.00259e-312
7.00259e-312
7.00259e-312
7.00259e-312
7.00259e-312
7.00259e-312
7.00259e-312
7.00259e-312
7.00259e-312
7.00259e-312
7.00259e-312
7.00259e-312
7.00259e-312
7.00259e-312
7.00259e-312
7.00259e-312
7.00259e-312
7.00259e-312
7.00259e-312
7.00259e-312
7.00259e-312
7.00259e-312
7.00259e-312
7.00259e-312
7.00259e-312
7.00259e-312
7.00259e-312
7.00259e-312
7.00259e-312
7.00259e-312
7.00259e-312
7.00259e-312
7.00259e-312
7.00259e-312
7.00259e-312
7.00259e-312
7.00259e-312
7.00259e-312
7.00259e-312
7.00259e-312
7.00259e-312
7.00259e-312
7.00259e-312
7.00259e-312
7.00259e-312
7.00259e-312
7.00259e-312
7.00259e-312
7.00259e-312
7.00259e-312
7.00259e-312
7.00259e-312
7.00259e-312
7.00259e-312
7.00259e-312
7.00259e-312
7.00259e-312
7.00259e-312
7.00259e-312
7.00259e-312
7.00259e-312
7.00259e-312
7.00259e-312
7.00259e-312
7.00259e-312
7.00259e-312
7.00259e-312
7.00259e-312
7.00259e-312
7.00259e-312
7.00259e-312
7.00259e-312
7.00259e-312
7.00259e-312
7.00259e-312
7.00259e-312
7.00259e-312
7.00259e-312
7.00259e-312
7.00259e-312
7.00259e-312
7.00259e-312
7.00259e-312
7.00259e-312
7.00259e-312
7.00259e-312
7.00259e-312
7.00259e-312
7.00259e-312
7.00259e-312
7.00259e-312
7.00259e-312
7.00259e-312
7.00259e-312
7.00259e-312
7.00259e-312
7.00259e-312
7.00259e-312
7.00259e-312
7.00259e-312
7.00259e-312
7.00259e-312
7.00259e-312
7.00259e-312
7.00259e-312
7.00259e-312
7.00259e-312
7.00259e-312
7.00259e-312
7.00259e-312
7.00259e-312
7.00259e-312
7.00259e-312
7.00259e-312
7.00259e-312
7.00259e-312
7.00259e-312
7.00259e-312
7.00259e-312
7.00259e-312
7.00259e-312
7.00259e-312
7.00259e-312
7.00259e-312
7.00259e-312
7.00259e-312
7.00259e-312
7.00259e-312
7.00259e-312
7.00259e-312
7.00259e-312
7.00259e-312
7.00259e-312
7.00259e-312
7.00259e-312
7.00259e-312
7.00259e-312
7.00259e-312
7.00259e-312
7.00259e-312
7.00259e-312
7.00259e-312
7.00259e-312
7.00259e-312
7.00259e-312
7.00259e-312
7.00259e-312
7.00259e-312
7.00259e-312
7.00259e-312
7.00259e-312
7.00259e-312
7.00259e-312
7.00259e-312
7.00259e-312
7.00259e-312
7.00259e-312
7.00259e-312
7.00259e-312
7.00259e-312
7.00259e-312
7.00259e-312
7.00259e-312
7.00259e-312
7.00259e-312
7.00259e-312
7.00259e-312
7.00259e-312
7.00259e-312
7.00259e-312
7.00259e-312
7.00259e-312
7.00259e-312
7.00259e-312
7.00259e-312
7.00259e-312
7.00259e-312
7.00259e-312
7.00259e-312
7.00259e-312
7.00259e-312
7.00259e-312
7.00259e-312
7.00259e-312
7.00259e-312
7.00259e-312
7.00259e-312
7.00259e-312
7.00259e-312
7.00259e-312
7.00259e-312
7.00259e-312
7.00259e-312
7.00259e-312
7.00259e-312
