# vtk DataFile Version 3.0
Tree
ASCII
DATASET POLYDATA
POINTS 1732 float
40693.5 56318.5 68.45
40693.5 56318.5 2568.45
34443.5 55443.5 6443.45
33438.5 52817.5 12801.5
33820.4 53815.4 10385.4
37151.5 52322.5 13543.5
33691.7 52978.3 12457.8
34428.5 51827.5 15523.5
33534.7 52878.6 12670.9
28983.5 49599.5 15771.5
36460 52275.1 13349.1
38636.5 49104.5 18245.4
33997.4 51953.1 15039.5
33191.5 49847.5 19730.4
29623.3 50242.4 14761
24776.4 47867.5 14533.5
28928.7 49650.2 15671.9
26261.5 47619.5 18741.4
38321.9 49588.2 18040.8
39378.5 48114.5 21711.4
38517 49288.3 18167.6
42843.5 44154.5 16265.5
39340 48540.3 20133
42348.5 46629.5 21711.4
32687 50244.1 18575.9
30468.5 48857.5 20968.4
27402.8 48365 18013.4
27745.5 47867.5 21215.4
33580.6 54323.4 8768.51
30193.5 52443.4 10943.5
30321 52514.1 10803.1
27745.5 51084.5 12306.5
32999.8 49998.2 19291.7
35913.5 49847.5 20226.4
39363.9 48276.3 21111.6
37398.5 49352.5 23196.4
25807.7 48231.5 14976.1
22795.4 45887.5 17256.4
37636 48975.8 22501.3
34181.5 49352.5 23443.4
42151.8 44832.2 16999.5
44081.5 42174.5 17256.4
42151.8 44832.2 16999.5
42843.5 40689.5 14286.5
41193.4 47312.5 20755.4
43338.5 45639.5 19730.4
39372.9 48176 21483.5
39625.5 48857.5 25175.5
37365.3 49164.8 23098.1
36160.5 49599.5 25423.5
42726.3 46017.2 20262.5
44328.5 44154.5 20968.4
43009.9 40935.8 14336.3
43585.5 39204.5 13048.5
42232.8 46625.5 21675.3
43585.5 45639.5 22948.4
27358.9 47957.2 20676
26756.5 47619.5 22948.4
23690.2 46360.4 17150.3
22548.4 44897.5 19483.4
26985.4 47747.8 22084.9
29726.5 48857.5 24928.4
23135.4 46067.2 17216.1
21063.4 43659.5 16513.4
36243.3 49447.6 24864.9
34428.5 49352.5 25918.5
23086.6 45478.8 18874.7
23538.4 45392.5 20968.4
42893.5 41745.4 15187
43833.5 39204.5 15276.5
23485.7 45554.4 20645.6
24033.4 46382.5 22700.4
29555.3 48639.4 24623.8
31211.5 49104.5 26166.5
44151.7 44185.7 21007
45070.5 42669.5 21711.4
26907.8 47754.3 22785.2
27003.5 48114.5 24928.4
36192 49541.8 25211.2
37398.5 49352.5 26908.5
43430.1 45608.7 22887.4
44576.5 44402.5 24185.4
22710.5 45112.7 19464.1
22053.4 44649.5 21215.4
22094.6 44680.3 20979.2
19578.4 42917.5 26908.5
39898.1 48356.5 23899.9
42348.5 47372.5 27403.5
30582.1 48927.8 25580.3
30468.5 50094.5 32106.5
29753 49373.3 29000.3
24943.5 49193.4 33693.4
44883.3 42732.5 21547
46555.5 38462.5 22700.4
30196.6 49820.5 30926.1
35913.5 49352.5 34828.5
44325.7 44469.2 24151.5
45318.5 42917.5 25918.5
20465.7 43566.6 26035.3
21063.4 44154.5 32106.5
34681.7 49340.2 34537.2
38140.5 48362.5 40273.5
43629.8 42476.3 17394.9
44576.5 39204.5 18741.4
21746.5 43828.6 16815.5
19578.4 37472.5 16513.4
19915.6 43164.2 26576.7
19083.4 36729.5 26660.5
19753.2 39115.3 27282.9
21311.4 34007.5 31363.5
21256.2 36528.4 30998.6
23785.4 34254.5 37055.5
22476.5 44948.4 20039.9
19826.4 41927.5 20226.4
41964.1 47395.6 27254.5
44328.5 45639.5 33096.5
43586.1 46113.6 32350.8
43585.5 45639.5 39036.5
26218.7 48883 33174.3
24776.4 46629.5 39036.5
25281.2 46655.9 37227.2
24776.4 41184.5 40768.5
23946.6 34705 36641.9
27251.5 33264.5 42500.5
26198.6 34323.1 41073.7
27993.5 37224.5 46955.5
43677.7 39504.8 15418.3
45070.5 34997.5 16513.4
44046.4 45819.7 32813.1
46308.5 40937.5 33838.5
45551.3 41849.2 33133.1
46555.5 35244.5 31363.5
45932.9 39339.4 32460.7
45318.5 34749.5 37055.5
45601.1 36860.9 34941.9
45318.5 38957.5 41510.5
21290.4 34965.4 31224.8
21311.4 30294.5 26166.5
21303.4 34371.5 31310.8
25023.5 29057.5 33591.5
24434.9 29833.9 32698.5
27993.5 24354.4 31611.5
26967.1 47977.6 24114
23043.4 47372.5 27155.5
44541.2 36710.3 16097.3
44576.5 31532.5 11563.5
20441 38565 16179.2
21558.4 33017.5 13543.5
21094.5 32614.9 27683.1
19826.4 32522.5 21463.4
46214.2 35553.3 31486.6
45318.5 29552.5 30126.5
45046.8 35168 36185.5
42348.5 30047.5 38540.5
45109.8 30445 30493.7
42100.5 24354.4 30126.5
21564.5 30703.3 26298.8
23785.4 26087.5 22453.4
24799.8 29352.5 33252.2
28488.5 27572.5 36808.5
27621.7 25348.8 31489.2
32200.5 20889.4 28641.5
35118.1 49388.6 25518.1
34923.5 49599.5 29383.5
20971.3 43580 30883.1
21558.4 41184.5 35076.5
43244 26668.8 30266
43338.5 22374.4 24928.4
42962.1 45652.6 38282.8
41358.5 45144.5 43985.5
42892.5 22847.9 25111.8
41853.5 19157.4 19483.4
24003.6 26340 22732.5
26261.5 22622.4 19730.4
37253.4 49349.4 26765
39378.5 48857.5 30126.5
27561.7 49069.3 31588.2
28488.5 50342.5 36313.5
23868.3 26183.5 22559.5
22300.4 27819.5 17256.4
45104 37062.1 37773.6
42595.5 34254.5 42500.5
36583.6 48739.3 38924.2
35666.5 48609.5 44976.5
22896.2 27197.8 19271.6
24528.4 23859.4 13791.5
25489.9 44759.1 39198.8
27745.5 43659.5 44480.5
26851.4 33666.8 41958.3
30221.5 29304.5 42253.5
45129.4 42983.8 25904.7
46061.5 40937.5 28393.5
46214.2 35553.3 31486.6
44823.5 30542.5 34085.5
24968.2 46639.5 38349
28241.5 48114.5 41758.5
25954.5 23119 19790.3
27745.5 20147.4 16513.4
20833.4 43075.5 20155.5
19083.4 42422.5 22948.4
28815.5 50004.2 35702.2
30715.5 50589.5 39530.5
42325.3 44877.9 41776
43338.5 41679.5 45718.5
27852.2 24732.3 31565
32200.5 23117.4 33591.5
20113.2 38149.8 16306.2
19083.4 37967.5 19235.4
21335.3 42094.8 33483
23043.4 43907.5 36560.5
43548.7 35321.4 40704.3
43338.5 37472.5 44976.5
27099.5 33417.4 42294.5
29726.5 32027.5 45966.5
38975.7 48945.5 29951.6
40368.5 48609.5 33343.5
21601.1 41194.8 34599.1
22548.4 38462.5 36560.5
23846.6 34425.7 36898.3
26508.5 31037.5 38540.5
19486.6 42252.3 22436.9
18588.4 39947.5 24681.4
42797.5 34332.2 41797.4
41110.5 31532.5 42995.5
45129.4 42983.8 25904.7
46061.5 40689.5 24681.4
21338.5 33274.7 13996.2
21806.4 29799.5 12801.5
23101.4 31364.4 31603.1
24528.4 26829.5 29136.5
42202.4 47381.3 27346.9
44328.5 45392.5 28145.5
43625.4 45507 34576.5
45070.5 42669.5 36808.5
41751.6 32596.4 42540.2
40121.5 32522.5 45470.5
46154.2 38863.5 22423.6
46555.5 36234.5 22700.4
44400.8 29010 30407.2
42843.5 27324.5 33591.5
28139.7 27518.3 35739.6
31458.5 25344.5 37055.5
24137.5 47639.8 26715.5
23291.4 48114.5 29878.5
22418.2 32507.1 31492
24033.4 31532.5 34581.5
41561.4 45009.4 43873
40943.4 44693.4 47443.4
46039.8 37900.7 32090.5
46555.5 36977.5 28888.5
43204.2 36511.7 43689.1
41853.5 35987.5 46461.5
34660.7 49508.8 27756
32448.5 49599.5 29630.5
43077.1 31222.1 37627.4
42348.5 28562.5 36560.5
23511.5 45925.5 21791.2
22300.4 46134.5 23691.4
45016.2 35352.8 16646.4
46308.5 32274.5 18741.4
42291.7 36413.5 45699.1
41606.5 37719.5 47946.5
34991.1 49575 29186.5
35913.5 49599.5 31115.5
42337.3 30191.3 38467.3
40863.5 28809.5 39778.5
20826.1 41547.8 17063.2
19578.4 40194.5 18245.4
21407.6 30449.8 26216.8
21558.4 29304.5 22453.4
45594.7 40471 21739
46061.5 38462.5 20226.4
29906.4 50209.6 36994.7
32943.5 50342.5 37551.5
25281.7 41774 40820.6
25765.5 39204.5 42748.5
45053 32705.7 12235.8
46308.5 31284.5 10078.5
26602.4 43820.6 42070.9
26508.5 41432.5 43491.5
23254.9 47266.2 27104.4
20568.4 45639.5 28393.5
21273.1 31888.5 27157.1
22300.4 29552.5 28393.5
44812.2 34715.2 14871.3
45070.5 33017.5 15028.5
26179.7 44177.2 40979.5
26756.5 45887.5 42748.5
45735.3 41792.3 27730.3
46061.5 41927.5 29878.5
31725.4 21682.4 28839.7
34428.5 19899.4 26908.5
45937.5 41876.1 29062.2
46555.5 39947.5 30373.5
26756.8 42459.4 43157.7
27993.5 41432.5 45470.5
19412.9 37748.6 18921.9
19083.4 36977.5 21463.4
30926.5 23121.7 30672.1
33438.5 21879.4 30868.5
23381.1 47813.1 29336.4
22300.4 46877.5 32106.5
27523.5 41822.7 44591.6
27251.5 39204.5 45223.5
35858.1 49314.5 34749.8
37893.5 49104.5 34828.5
28407.8 27687.8 36626.1
28983.5 28562.5 38788.5
19793.2 37568.1 17735.8
19578.4 34997.5 19978.4
27248.1 27574.2 34420.4
29726.5 25097.5 34581.5
19317.8 37460.7 26566.5
19083.4 35987.5 24433.4
27503.9 35862.5 44862.3
28983.5 34749.5 46708.5
40130.6 48439.8 33020.5
41110.5 47619.5 36066.5
31633.4 51571.5 14619.5
30963.5 51084.5 16265.5
28577.1 49649.6 33776.3
30963.5 50342.5 34581.5
36725.2 50795 16182.9
36160.5 50094.5 17750.4
45650.1 33331.8 33435.9
45566.5 32769.5 34828.5
41178.2 44813.5 46086.7
42443.4 42943.4 47443.4
26729 48953.8 32571.6
26756.5 50342.5 34085.5
31109.7 51042.8 15994.4
30715.5 49847.5 17503.4
20886.9 34014.2 28882.9
20073.4 34254.5 26908.5
29796.9 49084.2 27050.2
28488.5 49104.5 27898.5
36583.6 48739.3 38924.2
39873.5 47867.5 38540.5
35286.6 49220.7 22871.2
33438.5 49352.5 21711.4
20513.6 37946.1 29555.9
20568.4 38709.5 32106.5
26361.7 47682.2 18579.4
24776.4 46629.5 18988.4
22426.7 27894.3 17557.9
22053.4 29552.5 15523.5
44347.8 37725.8 16056.5
45318.5 36977.5 17503.4
24968.4 41408.5 40788.3
24033.4 39947.5 39530.5
21319.4 44745.6 23907.6
21063.4 45392.5 25423.5
28612.8 50214 36081.2
27498.5 49352.5 38788.5
23590.3 47408.1 26956.6
22053.4 46629.5 26166.5
23802.5 28248.8 29124
23785.4 27077.5 27403.5
43601 45883.1 33196.5
42843.5 47124.5 34581.5
24366.7 24308 16108.2
25270.5 22622.4 15523.5
19846 40559.9 18168.8
19083.4 40194.5 19978.4
25937.2 39430.1 42708.9
26508.5 37967.5 43985.5
40059.9 48496.2 32202.5
41853.5 47867.5 33096.5
22348.4 27847.9 17371
23043.4 26829.5 15276.5
45505.1 42245.1 27036.6
46061.5 40442.5 26908.5
28130.8 33165.4 44503.7
28241.5 33512.5 45718.5
21142.6 44138 31914.8
21806.4 45144.5 33096.5
37715.2 50046.8 17334.8
39873.5 49599.5 16760.4
45899.6 41429.8 33457.6
46061.5 41679.5 35570.5
28077 51083.3 12182.2
26756.5 50094.5 13048.5
20962.7 34493 15374.9
21063.4 32522.5 15771.5
40254.4 47821 17770.5
41606.5 47867.5 17750.4
28706 50117.5 35906.8
26013.5 49352.5 36560.5
33440.9 49556 28314.9
32200.5 49599.5 28145.5
43069.5 21458.2 22085.9
43833.5 21384.4 20721.4
44835.7 35868.6 16437.7
45813.5 34997.5 18741.4
42453.6 25349.6 30394.4
41110.5 24354.4 31611.5
32812.1 49626.8 32180.2
34181.5 49599.5 32106.5
24378.2 27153.1 28958.8
25270.5 25592.5 27898.5
21770.3 46241.4 28540.2
21063.4 45639.5 29878.5
29412.7 30143.7 41766.9
30221.5 28562.5 40768.5
21106 42571.4 32241.5
20815.4 40937.5 32600.5
43883.7 44624.4 21173.7
44823.5 43659.5 22453.4
21850.9 40005.3 35126.2
21558.4 37967.5 34581.5
45935.5 38866.2 20738.7
46061.5 37472.5 20968.4
29602.1 23556 30711.4
29973.5 22127.4 29878.5
45930.5 38582 33496.8
46555.5 38709.5 35076.5
22072.4 44663.7 21106.7
21063.4 43907.5 21711.4
[...]
CELL_DATA 1731
SCALARS radius float
LOOKUP_TABLE default
2.122e-314
100
100
100
77.463
77.463
72.0123
72.0123
66.9452
66.9452
74.6879
74.6879
64.547
64.547
50
50
48.2088
48.2088
53.7845
53.7845
51.8578
51.8578
50
50
55.7829
55.7829
41.6631
41.6631
83.3262
83.3262
80.3411
80.3411
53.7845
53.7845
48.2088
48.2088
46.4818
46.4818
44.8166
44.8166
44.8166
44.8166
43.2111
43.2111
43.2111
43.2111
46.4818
46.4818
43.2111
43.2111
41.6631
41.6631
38.7315
38.7315
41.6631
41.6631
38.7315
38.7315
41.6631
41.6631
34.7163
34.7163
40.1706
40.1706
41.6631
41.6631
38.7315
38.7315
40.1706
40.1706
37.344
37.344
31.1173
31.1173
37.344
37.344
33.4726
33.4726
40.1706
40.1706
38.7315
38.7315
37.344
37.344
34.7163
34.7163
43.2111
43.2111
30.0026
30.0026
27.8914
27.8914
33.4726
33.4726
26.8923
26.8923
37.344
37.344
27.8914
27.8914
22.4083
22.4083
40.1706
40.1706
37.344
37.344
25
25
22.4083
22.4083
20.8316
20.8316
36.0062
36.0062
38.7315
38.7315
33.4726
33.4726
20.8316
20.8316
19.3657
19.3657
18.0031
18.0031
15.5587
15.5587
36.0062
36.0062
32.2735
32.2735
30.0026
30.0026
27.8914
27.8914
25.9289
25.9289
20.0853
20.0853
19.3657
19.3657
16.1367
16.1367
32.2735
32.2735
32.2735
32.2735
31.1173
31.1173
17.3581
17.3581
24.1044
24.1044
24.1044
24.1044
21.6055
21.6055
16.1367
16.1367
15.5587
15.5587
13.4461
13.4461
40.1706
40.1706
25
25
18.672
18.672
26.8923
26.8923
15.5587
15.5587
14.4639
14.4639
38.7315
38.7315
22.4083
22.4083
13.9457
13.9457
25
25
18.672
18.672
13.4461
13.4461
16.7363
16.7363
14.4639
14.4639
34.7163
34.7163
23.2409
23.2409
18.672
18.672
12.5
12.5
32.2735
32.2735
20.0853
20.0853
24.1044
24.1044
12.9644
12.9644
30.0026
30.0026
21.6055
21.6055
24.1044
24.1044
13.9457
13.9457
36.0062
36.0062
20.8316
20.8316
16.1367
16.1367
30.0026
30.0026
22.4083
22.4083
33.4726
33.4726
25.9289
25.9289
16.7363
16.7363
36.0062
36.0062
30.0026
30.0026
20.0853
20.0853
30.0026
30.0026
20.0853
20.0853
12.9644
12.9644
27.8914
27.8914
18.672
18.672
23.2409
23.2409
25.9289
25.9289
23.2409
23.2409
37.344
37.344
22.4083
22.4083
33.4726
33.4726
30.0026
30.0026
22.4083
22.4083
34.7163
34.7163
20.0853
20.0853
33.4726
33.4726
15.0013
15.0013
31.1173
31.1173
19.3657
19.3657
14.4639
14.4639
28.9278
28.9278
13.9457
13.9457
25
25
16.7363
16.7363
31.1173
31.1173
15.5587
15.5587
31.1173
31.1173
11.2042
11.2042
30.0026
30.0026
13.4461
13.4461
27.8914
27.8914
12.0522
12.0522
26.8923
26.8923
12.5
12.5
21.6055
21.6055
12.5
12.5
28.9278
28.9278
15.0013
15.0013
19.3657
19.3657
12.5
12.5
32.2735
32.2735
53.7845
53.7845
20.8316
20.8316
62.2346
62.2346
20.0853
20.0853
22.4083
22.4083
21.6055
21.6055
51.8578
51.8578
18.0031
18.0031
28.9278
28.9278
18.0031
18.0031
43.2111
43.2111
21.6055
21.6055
40.1706
40.1706
12.9644
12.9644
33.4726
33.4726
13.9457
13.9457
31.1173
31.1173
18.672
18.672
25.9289
25.9289
15.5587
15.5587
32.2735
32.2735
12.5
12.5
31.1173
31.1173
12.5
12.5
33.4726
33.4726
12.5
12.5
32.2735
32.2735
12.5
12.5
24.1044
24.1044
57.8555
57.8555
28.9278
28.9278
74.6879
74.6879
27.8914
27.8914
50
50
19.3657
19.3657
36.0062
36.0062
13.4461
13.4461
31.1173
31.1173
18.0031
18.0031
25.9289
25.9289
15.0013
15.0013
24.1044
24.1044
13.4461
13.4461
23.2409
23.2409
38.7315
38.7315
20.0853
20.0853
28.9278
28.9278
12.5
12.5
26.8923
26.8923
33.4726
33.4726
20.8316
20.8316
28.9278
28.9278
12.0522
12.0522
23.2409
23.2409
43.2111
43.2111
18.0031
18.0031
31.1173
31.1173
20.8316
20.8316
25.9289
25.9289
14.4639
14.4639
24.1044
24.1044
18.672
18.672
28.9278
28.9278
33.4726
33.4726
18.672
18.672
23.2409
23.2409
77.463
77.463
16.1367
16.1367
26.8923
26.8923
20.0853
20.0853
25.9289
25.9289
48.2088
48.2088
18.672
18.672
36.0062
36.0062
20.8316
20.8316
28.9278
28.9278
44.8166
44.8166
25
25
30.0026
30.0026
10.8028
10.8028
19.3657
19.3657
32.2735
32.2735
21.6055
21.6055
24.1044
24.1044
12.0522
12.0522
21.6055
21.6055
89.6332
89.6332
19.3657
19.3657
32.2735
32.2735
13.4461
13.4461
24.1044
24.1044
38.7315
38.7315
18.672
18.672
26.8923
26.8923
83.3262
83.3262
23.2409
23.2409
34.7163
34.7163
17.3581
17.3581
26.8923
26.8923
36.0062
36.0062
20.8316
20.8316
18.672
18.672
41.6631
41.6631
21.6055
21.6055
23.2409
23.2409
37.344
37.344
13.4461
13.4461
31.1173
31.1173
37.344
37.344
23.2409
23.2409
25.9289
25.9289
31.1173
31.1173
15.0013
15.0013
20.0853
20.0853
31.1173
31.1173
13.9457
13.9457
28.9278
28.9278
30.0026
30.0026
51.8578
51.8578
14.4639
14.4639
23.2409
23.2409
34.7163
34.7163
12.0522
12.0522
23.2409
23.2409
36.0062
36.0062
18.672
18.672
19.3657
19.3657
28.9278
28.9278
15.0013
15.0013
21.6055
21.6055
27.8914
27.8914
12.0522
12.0522
12.0522
12.0522
24.1044
24.1044
72.0123
72.0123
24.1044
24.1044
24.1044
24.1044
30.0026
30.0026
46.4818
46.4818
16.1367
16.1367
20.8316
20.8316
31.1173
31.1173
27.8914
27.8914
41.6631
41.6631
15.0013
15.0013
22.4083
22.4083
28.9278
28.9278
41.6631
41.6631
16.7363
16.7363
20.0853
20.0853
25.9289
25.9289
31.1173
31.1173
23.2409
23.2409
30.0026
30.0026
15.0013
15.0013
23.2409
23.2409
25.9289
25.9289
24.1044
24.1044
32.2735
32.2735
12.9644
12.9644
18.672
18.672
20.0853
20.0853
27.8914
27.8914
25
25
20.8316
20.8316
25
25
20.0853
20.0853
25
25
18.0031
18.0031
22.4083
22.4083
18.0031
18.0031
22.4083
22.4083
19.3657
19.3657
20.0853
20.0853
20.0853
20.0853
19.3657
19.3657
12.9644
12.9644
19.3657
19.3657
17.3581
17.3581
20.0853
20.0853
18.0031
18.0031
19.3657
19.3657
18.0031
18.0031
18.0031
18.0031
17.3581
17.3581
12.5
12.5
17.3581
17.3581
13.9457
13.9457
18.0031
18.0031
16.7363
16.7363
18.0031
18.0031
18.0031
18.0031
23.2409
23.2409
15.5587
15.5587
16.1367
16.1367
21.6055
21.6055
16.7363
16.7363
17.3581
17.3581
17.3581
17.3581
20.8316
20.8316
16.1367
16.1367
15.5587
15.5587
22.4083
22.4083
19.3657
19.3657
12.9644
12.9644
17.3581
17.3581
18.672
18.672
15.5587
15.5587
18.672
18.672
17.3581
17.3581
15.0013
15.0013
12.0522
12.0522
12.9644
12.9644
11.2042
11.2042
12.9644
12.9644
13.9457
13.9457
15.5587
15.5587
11.6204
11.6204
12.9644
12.9644
13.9457
13.9457
12.9644
12.9644
11.2042
11.2042
13.9457
13.9457
12.5
12.5
11.6204
11.6204
12.5
12.5
14.4639
14.4639
21.6055
21.6055
11.6204
11.6204
25
25
12.0522
12.0522
19.3657
19.3657
50
50
66.9452
66.9452
48.2088
48.2088
55.7829
55.7829
46.4818
46.4818
50
50
60.0051
60.0051
57.8555
57.8555
51.8578
51.8578
62.2346
62.2346
55.7829
55.7829
86.4222
86.4222
69.4326
69.4326
86.4222
86.4222
80.3411
80.3411
69.4326
69.4326
53.7845
53.7845
50
50
46.4818
46.4818
74.6879
74.6879
48.2088
48.2088
44.8166
44.8166
46.4818
46.4818
37.344
37.344
43.2111
43.2111
41.6631
41.6631
40.1706
40.1706
37.344
37.344
36.0062
36.0062
36.0062
36.0062
38.7315
38.7315
34.7163
34.7163
32.2735
32.2735
38.7315
38.7315
41.6631
41.6631
34.7163
34.7163
34.7163
34.7163
36.0062
36.0062
37.344
37.344
33.4726
33.4726
30.0026
30.0026
32.2735
32.2735
28.9278
28.9278
28.9278
28.9278
32.2735
32.2735
34.7163
34.7163
26.8923
26.8923
22.4083
22.4083
25
25
25
25
28.9278
28.9278
21.6055
21.6055
20.8316
20.8316
20.0853
20.0853
23.2409
23.2409
27.8914
27.8914
19.3657
19.3657
22.4083
22.4083
15.5587
15.5587
18.0031
18.0031
16.7363
16.7363
13.4461
13.4461
11.6204
11.6204
55.7829
55.7829
27.8914
27.8914
25.9289
25.9289
22.4083
22.4083
16.7363
16.7363
15.0013
15.0013
11.6204
11.6204
44.8166
44.8166
30.0026
30.0026
22.4083
22.4083
25.9289
25.9289
18.0031
18.0031
13.4461
13.4461
69.4326
69.4326
37.344
37.344
20.0853
20.0853
16.7363
16.7363
16.1367
16.1367
74.6879
74.6879
32.2735
32.2735
22.4083
22.4083
24.1044
24.1044
22.4083
22.4083
11.6204
11.6204
25.9289
25.9289
16.1367
16.1367
23.2409
23.2409
62.2346
62.2346
21.6055
21.6055
14.4639
14.4639
64.547
64.547
25
25
12.9644
12.9644
57.8555
57.8555
66.9452
66.9452
12.5
12.5
60.0051
60.0051
18.672
18.672
13.9457
13.9457
92.9635
92.9635
12.0522
12.0522
51.8578
51.8578
17.3581
17.3581
40.1706
40.1706
16.1367
16.1367
32.2735
32.2735
11.6204
11.6204
40.1706
40.1706
14.4639
14.4639
38.7315
38.7315
60.0051
60.0051
12.9644
12.9644
28.9278
28.9278
15.0013
15.0013
33.4726
33.4726
96.4176
96.4176
64.547
64.547
72.0123
72.0123
43.2111
43.2111
44.8166
44.8166
40.1706
40.1706
34.7163
34.7163
37.344
37.344
31.1173
31.1173
36.0062
36.0062
38.7315
38.7315
34.7163
34.7163
55.7829
55.7829
51.8578
51.8578
34.7163
34.7163
53.7845
53.7845
37.344
37.344
37.344
37.344
40.1706
40.1706
51.8578
51.8578
46.4818
46.4818
36.0062
36.0062
33.4726
33.4726
40.1706
40.1706
40.1706
40.1706
34.7163
34.7163
37.344
37.344
50
50
38.7315
38.7315
26.8923
26.8923
36.0062
36.0062
36.0062
36.0062
37.344
37.344
26.8923
26.8923
32.2735
32.2735
32.2735
32.2735
34.7163
34.7163
31.1173
31.1173
27.8914
27.8914
19.3657
19.3657
34.7163
34.7163
36.0062
36.0062
24.1044
24.1044
33.4726
33.4726
33.4726
33.4726
30.0026
30.0026
28.9278
28.9278
28.9278
28.9278
24.1044
24.1044
34.7163
34.7163
22.4083
22.4083
25
25
25.9289
25.9289
26.8923
26.8923
20.8316
20.8316
23.2409
23.2409
23.2409
23.2409
19.3657
19.3657
17.3581
17.3581
19.3657
19.3657
18.0031
18.0031
18.672
18.672
20.8316
20.8316
18.672
18.672
16.1367
16.1367
17.3581
17.3581
20.0853
20.0853
26.8923
26.8923
15.5587
15.5587
20.8316
20.8316
27.8914
27.8914
17.3581
17.3581
18.0031
18.0031
13.9457
13.9457
18.0031
18.0031
25.9289
25.9289
18.0031
18.0031
18.672
18.672
19.3657
19.3657
20.8316
20.8316
13.4461
13.4461
21.6055
21.6055
20.0853
20.0853
19.3657
19.3657
12.9644
12.9644
20.0853
20.0853
16.7363
16.7363
21.6055
21.6055
25.9289
25.9289
26.8923
26.8923
21.6055
21.6055
19.3657
19.3657
17.3581
17.3581
26.8923
26.8923
20.0853
20.0853
19.3657
19.3657
15.0013
15.0013
20.8316
20.8316
23.2409
23.2409
16.7363
16.7363
22.4083
22.4083
20.0853
20.0853
25.9289
25.9289
25
25
24.1044
24.1044
21.6055
21.6055
17.3581
17.3581
19.3657
19.3657
13.9457
13.9457
15.0013
15.0013
12.5
12.5
21.6055
21.6055
12.9644
12.9644
22.4083
22.4083
20.8316
20.8316
12.0522
12.0522
12.5
12.5
14.4639
14.4639
19.3657
19.3657
15.5587
15.5587
18.672
18.672
18.0031
18.0031
12.5
12.5
14.4639
14.4639
11.6204
11.6204
14.4639
14.4639
12.0522
12.0522
11.2042
11.2042
11.2042
11.2042
10.8028
10.8028
15.0013
15.0013
12.5
12.5
13.4461
13.4461
11.2042
11.2042
11.2042
11.2042
11.6204
11.6204
11.6204
11.6204
21.6055
21.6055
12.0522
12.0522
10.8028
10.8028
13.4461
13.4461
12.0522
12.0522
7.00259e-312
7.00259e-312
7.00259e-312
7.00259e-312
7.00259e-312
7.00259e-312
7.00259e-312
7.00259e-312
7.00259e-312
7.00259e-312
7.00259e-312
7.00259e-312
7.00259e-312
7.00259e-312
7.00259e-312
7.00259e-312
7.00259e-312
7.00259e-312
7.00259e-312
7.00259e-312
7.00259e-312
7.00259e-312
7.00259e-312
7.00259e-312
7.00259e-312
7.00259e-312
7.00259e-312
7.00259e-312
7.00259e-312
7.00259e-312
7.00259e-312
7.00259e-312
7.00259e-312
7.00259e-312
7.00259e-312
7.00259e-312
7.00259e-312
7.00259e-312
7.00259e-312
7.00259e-312
7.00259e-312
7.00259e-312
7.00259e-312
7.00259e-312
7.00259e-312
7.00259e-312
7.00259e-312
7.00259e-312
7.00259e-312
7.00259e-312
7.00259e-312
7.00259e-312
7.00259e-312
7.00259e-312
7.00259e-312
7.00259e-312
7.00259e-312
7.00259e-312
7.00259e-312
7.00259e-312
7.00259e-312
7.00259e-312
7.00259e-312
7.00259e-312
7.00259e-312
7.00259e-312
7.00259e-312
7.00259e-312
7.00259e-312
7.00259e-312
7.00259e-312
7.00259e-312
7.00259e-312
7.00259e-312
7.00259e-312
7.00259e-312
7.00259e-312
7.00259e-312
7.00259e-312
7.00259e-312
7.00259e-312
7.00259e-312
7.00259e-312
7.00259e-312
7.00259e-312
7.00259e-312
7.00259e-312
7.00259e-312
7.00259e-312
7.00259e-312
7.00259e-312
7.00259e-312
7.00259e-312
7.00259e-312
7.00259e-312
7.00259e-312
7.00259e-312
7.00259e-312
7.00259e-312
7.00259e-312
7.00259e-312
7.00259e-312
7.00259e-312
7.00259e-312
7.00259e-312
7.00259e-312
7.00259e-312
7.00259e-312
7.00259e-312
7.00259e-312
7.00259e-312
7.00259e-312
7.00259e-312
7.00259e-312
7.00259e-312
7.00259e-312
7.00259e-312
7.00259e-312
7.00259e-312
7.00259e-312
7.00259e-312
7.00259e-312
7.00259e-312
7.00259e-312
7.00259e-312
7.00259e-312
7.00259e-312
7.00259e-312
7.00259e-312
7.00259e-312
7.00259e-312
7.00259e-312
7.00259e-312
7.00259e-312
7.00259e-312
7.00259e-312
7.00259e-312
7.00259e-312
7.00259e-312
7.00259e-312
7.00259e-312
7.00259e-312
7.00259e-312
7.00259e-312
7.00259e-312
7.00259e-312
7.00259e-312
7.00259e-312
7.00259e-312
7.00259e-312
7.00259e-312
7.00259e-312
7.00259e-312
7.00259e-312
7.00259e-312
7.00259e-312
7.00259e-312
7.00259e-312
7.00259e-312
7.00259e-312
7.00259e-312
7.00259e-312
7.00259e-312
7.00259e-312
7.00259e-312
7.00259e-312
7.00259e-312
7.00259e-312
7.00259e-312
7.00259e-312
7.00259e-312
7.00259e-312
7.00259e-312
7.00259e-312
7.00259e-312
7.00259e-312
7.00259e-312
7.00259e-312
7.00259e-312
7.00259e-312
7.00259e-312
7.00259e-312
7.00259e-312
7.00259e-312
7.00259e-312
7.00259e-312
7.00259e-312
7.00259e-312
7.00259e-312
7.00259e-312
7.00259e-312
7.00259e-312
7.00259e-312
7.00259e-312
7.00259e-312
7.00259e-312
7.00259e-312
7.00259e-312
7.00259e-312
7.00259e-312
7.00259e-312
7.00259e-312
7.00259e-312
7.00259e-312
7.00259e-312
7.00259e-312
7.00259e-312
7.00259e-312
7.00259e-312
7.00259e-312
7.00259e-312
7.00259e-312
7.00259e-312
7.00259e-312
7.00259e-312
7.00259e-312
7.00259e-312
7.00259e-312
7.00259e-312
7.00259e-312
7.00259e-312
7.00259e-312
7.00259e-312
7.00259e-312
7.00259e-312
7.00259e-312
7.00259e-312
7.00259e-312
7.00259e-312
7.00259e-312
7.00259e-312
7.00259e-312
7.00259e-312
7.00259e-312
7.00259e-312
7.00259e-312
7.00259e-312
7.00259e-312
7.00259e-312
7.00259e-312
7.00259e-312
7.00259e-312
7.00259e-312
7.00259e-312
7.00259e-312
7.00259e-312
7.00259e-312
7.00259e-312
7.00259e-312
7.00259e-312
7.00259e-312
7.00259e-312
7.00259e-312
7.00259e-312
7.00259e-312
7.00259e-312
7.00259e-312
7.00259e-312
7.00259e-312
7.00259e-312
7.00259e-312
7.00259e-312
7.00259e-312
7.00259e-312
7.00259e-312
7.00259e-312
7.00259e-312
7.00259e-312
7.00259e-312
7.00259e-312
7.00259e-312
7.00259e-312
7.00259e-312
7.00259e-312
7.00259e-312
7.00259e-312
7.00259e-312
7.00259e-312
7.00259e-312
7.00259e-312
7.00259e-312
7.00259e-312
7.00259e-312
7.00259e-312
7.00259e-312
7.00259e-312
7.00259e-312
7.00259e-312
7.00259e-312
7.00259e-312
7.00259e-312
7.00259e-312
7.00259e-312
7.00259e-312
7.00259e-312
7.00259e-312
7.00259e-312
7.00259e-312
7.00259e-312
7.00259e-312
7.00259e-312
7.00259e-312
7.00259e-312
7.00259e-312
7.00259e-312
7.00259e-312
7.00259e-312
7.00259e-312
7.00259e-312
7.00259e-312
7.00259e-312
7.00259e-312
7.00259e-312
7.00259e-312
7.00259e-312
7.00259e-312
7.00259e-312
7.00259e-312
7.00259e-312
7.00259e-312
7.00259e-312
7.00259e-312
7.00259e-312
7.00259e-312
7.00259e-312
7.00259e-312
7.00259e-312
7.00259e-312
7.00259e-312
7.00259e-312
7.00259e-312
7.00259e-312
7.00259e-312
7.00259e-312
7.00259e-312
7.00259e-312
7.00259e-312
7.00259e-312
7.00259e-312
7.00259e-312
7.00259e-312
7.00259e-312
7.00259e-312
7.00259e-312
7.00259e-312
7.00259e-312
7.00259e-312
7.00259e-312
7.00259e-312
7.00259e-312
7.00259e-312
7.00259e-312
7.00259e-312
7.00259e-312
7.00259e-312
7.00259e-312
7.00259e-312
7.00259e-312
7.00259e-312
7.00259e-312
7.00259e-312
7.00259e-312
7.00259e-312
7.00259e-312
7.00259e-312
7.00259e-312
7.00259e-312
7.00259e-312
7.00259e-312
7.00259e-312
7.00259e-312
7.00259e-312
7.00259e-312
7.00259e-312
7.00259e-312
7.00259e-312
7.00259e-312
7.00259e-312
7.00259e-312
7.00259e-312
7.00259e-312
7.00259e-312
7.00259e-312
7.00259e-312
7.00259e-312
7.00259e-312
7.00259e-312
7.00259e-312
7.00259e-312
7.00259e-312
7.00259e-312
7.00259e-312
7.00259e-312
7.00259e-312
7.00259e-312
7.00259e-312
7.00259e-312
7.00259e-312
7.00259e-312
7.00259e-312
7.00259e-312
7.00259e-312
7.00259e-312
7.00259e-312
7.00259e-312
7.00259e-312
7.00259e-312
7.00259e-312
7.00259e-312
7.00259e-312
7.00259e-312
7.00259e-312
7.00259e-312
7.00259e-312
7.00259e-312
7.00259e-312
7.00259e-312
7.00259e-312
7.00259e-312
7.00259e-312
7.00259e-312
7.00259e-312
7.00259e-312
7.00259e-312
7.00259e-312
7.00259e-312
7.00259e-312
7.00259e-312
7.00259e-312
