# vtk DataFile Version 3.0
Tree
ASCII
DATASET POLYDATA
POINTS 400 float
0 0 0
0.352073 -0.589415 0
0.176037 -0.294708 0
-0.231462 -0.737532 0
0.264055 -0.442061 0
0.663454 -0.520234 0
0.308064 -0.515738 0
0.257219 -0.788484 0
0.282641 -0.652111 0
-0.630901 -0.896472 0
0.220046 -0.368384 0
0.335219 -0.157705 0
-0.17413 -0.774292 0
-0.37086 -1.06722 0
-0.402515 -0.835382 0
-0.409364 -1.37919 0
-0.272495 -0.920756 0
0.11065 -1.30227 0
0.0542558 -0.713201 0
0.205609 -0.933505 0
-0.0809224 -1.11151 0
-0.138151 -1.45654 0
0.26993 -0.720298 0
0.531137 -1.13866 0
-0.0277127 -0.51612 0
-0.221537 -0.304251 0
-0.129587 -0.626826 0
-0.418484 -0.239494 0
0.0880183 -0.147354 0
-0.253595 -0.0496179 0
-0.109537 -1.28403 0
0.249087 -1.4203 0
-0.123844 -1.37028 0
-0.27951 -1.40122 0
0.400534 -0.929479 0
0.544202 -0.907452 0
0.472368 -0.918465 0
0.496093 -0.746969 0
0.129932 -0.823353 0
-0.00927474 -0.918111 0
-0.516708 -0.865927 0
-0.740446 -0.813706 0
-0.628577 -0.839816 0
-0.752545 -0.656145 0
-0.274036 -0.43316 0
-0.455896 -0.490356 0
-0.690561 -0.747981 0
-0.571906 -0.676822 0
0.48423 -0.832717 0
0.710989 -0.832244 0
-0.124625 -0.410185 0
-0.0325463 -0.2687 0
0.0697751 -1.35216 0
0.324298 -1.29817 0
-0.631234 -0.712401 0
-0.601961 -0.519268 0
0.463754 -0.481148 0
0.613037 -0.359247 0
0.197037 -1.32517 0
0.178105 -1.18168 0
0.59761 -0.832481 0
0.668606 -0.97085 0
-0.40594 -1.10729 0
-0.593536 -1.07566 0
0.654299 -0.832362 0
0.642271 -0.698406 0
0.159431 -1.38623 0
0.0536559 -1.49799 0
0.508285 -0.912959 0
0.552171 -1.25494 0
0.260667 -1.31167 0
0.365629 -1.17584 0
-0.34626 -0.336327 0
-0.551559 -0.364395 0
-0.0952296 -1.19777 0
-0.224036 -1.19644 0
0.168449 -0.682656 0
0.0807134 -0.568942 0
0.277632 -0.263045 0
0.399759 -0.297454 0
0.0148638 -1.20689 0
-0.000405428 -1.04554 0
0.313148 -1.24375 0
0.248006 -1.04673 0
-0.382372 -0.28791 0
-0.322422 -0.129226 0
0.563604 -0.500691 0
0.55717 -0.637826 0
0.286059 -0.4789 0
0.169477 -0.508789 0
-0.288323 -0.804837 0
-0.319534 -0.674371 0
-0.0827884 -0.0984858 0
-0.155548 -0.195565 0
-0.223312 -0.847524 0
-0.105008 -0.865251 0
-0.321677 -0.993988 0
-0.289142 -1.11688 0
-0.60157 -0.694612 0
-0.475568 -0.695919 0
0.538396 -0.420197 0
0.50616 -0.320725 0
-0.573805 -0.881199 0
-0.664878 -0.990698 0
0.167771 -0.878429 0
0.120459 -0.98566 0
0.292483 -1.30492 0
0.35309 -1.37633 0
0.280577 -1.14524 0
0.354594 -1.08439 0
0.339389 -1.2098 0
0.444 -1.21767 0
-0.407652 -1.24324 0
-0.315676 -1.25279 0
-0.176709 -1.01613 0
-0.0739033 -0.994419 0
-0.352397 -0.208568 0
-0.472476 -0.165612 0
-0.130997 -1.41341 0
-0.0493756 -1.47454 0
-0.059937 -0.743746 0
-0.0291783 -0.834218 0
-0.364966 -0.461758 0
-0.297811 -0.529129 0
0.225545 -0.667384 0
0.211423 -0.586139 0
-0.408508 -1.31121 0
-0.482152 -1.27893 0
-0.367384 -0.248239 0
-0.299444 -0.259197 0
0.264292 -1.09599 0
0.195175 -1.10555 0
0.530228 -1.08395 0
0.617088 -1.19261 0
0.132027 -0.221031 0
0.0819568 -0.273304 0
-0.499738 -1.09147 0
-0.517029 -1.02051 0
0.0741619 -0.405414 0
0.126247 -0.455292 0
0.335232 -0.824888 0
0.372032 -0.752046 0
0.513679 -0.490919 0
0.482613 -0.560233 0
0.144115 -0.932045 0
0.052678 -0.992805 0
0.338696 -0.280249 0
0.403576 -0.225276 0
-0.459612 -0.850654 0
-0.440138 -0.758783 0
0.490162 -0.789843 0
0.54489 -0.70391 0
0.363905 -0.461604 0
0.379309 -0.40256 0
-0.616597 -0.615835 0
-0.657893 -0.492074 0
-0.00284057 -0.728474 0
0.00382358 -0.659964 0
-0.128816 -1.06382 0
-0.18949 -1.09314 0
0.0627569 -1.25458 0
0.113405 -1.16692 0
0.196997 -0.67502 0
0.184573 -0.744946 0
0.613529 -0.510462 0
0.65666 -0.456148 0
-0.16416 -0.856387 0
-0.171832 -0.910936 0
-0.173081 -0.357218 0
-0.160401 -0.288248 0
-0.201677 -1.38575 0
-0.242156 -1.33316 0
0.18669 -0.905967 0
0.228056 -0.861159 0
0.648285 -0.765384 0
0.704907 -0.74548 0
-0.48816 -0.858291 0
-0.508504 -0.80405 0
0.0983964 -0.962425 0
-0.00435025 -0.97564 0
-0.148853 -0.383702 0
-0.205539 -0.409127 0
-0.159633 -1.1971 0
-0.164978 -1.25803 0
0.124581 -0.625799 0
0.0287604 -0.598498 0
0.498146 -0.525576 0
0.432055 -0.546635 0
-0.134584 -0.860819 0
-0.111658 -0.917008 0
-0.123121 -0.888914 0
-0.0482545 -0.881165 0
-0.337409 -0.168897 0
-0.275085 -0.0979508 0
0.00261494 -0.12292 0
-0.0278898 -0.170047 0
-0.166741 -0.322733 0
-0.192175 -0.234392 0
0.132287 -0.958852 0
0.161731 -1.0181 0
0.465835 -1.03407 0
0.398806 -1.02237 0
-0.0786501 -0.571473 0
-0.0808178 -0.648332 0
0.102647 -0.597371 0
0.109304 -0.527164 0
0.295353 -0.583925 0
0.376926 -0.634788 0
-0.616402 -0.703507 0
-0.580701 -0.747289 0
-0.247904 -0.88414 0
-0.298372 -0.874404 0
0.24205 -0.405223 0
0.211884 -0.442943 0
-0.406796 -1.17526 0
-0.360527 -1.17656 0
-0.410431 -0.476057 0
-0.398584 -0.519604 0
0.519256 -0.998454 0
0.566727 -0.991894 0
-0.180525 -0.682179 0
-0.190687 -0.62717 0
0.336139 -0.609356 0
0.326841 -0.659618 0
-0.40808 -1.27723 0
-0.36081 -1.31173 0
0.0388103 -1.23074 0
-0.00661278 -1.24431 0
-0.310148 -0.384743 0
-0.256843 -0.385692 0
-0.0761688 -0.463153 0
-0.13293 -0.460185 0
-0.44533 -1.29507 0
-0.473757 -1.32939 0
0.121256 -0.947235 0
0.0892493 -0.918703 0
-0.30541 -1.05543 0
-0.260011 -1.06855 0
-0.102383 -1.2409 0
-0.0630931 -1.2477 0
0.367883 -0.877183 0
0.323596 -0.881987 0
-0.407224 -1.20925 0
-0.448894 -1.21828 0
0.436451 -0.923972 0
0.432956 -0.885382 0
0.253052 -0.423642 0
0.291944 -0.403692 0
-0.201812 -0.529993 0
-0.153064 -0.535492 0
-0.168192 -0.0740519 0
-0.20239 -0.102914 0
0.0867034 -1.27843 0
0.0498276 -1.29562 0
0.498486 -1.08636 0
0.472045 -1.11104 0
-0.721553 -0.702063 0
-0.742515 -0.733962 0
0.125099 -0.350061 0
0.113279 -0.314629 0
0.0257076 -0.720838 0
0.0140694 -0.757915 0
-0.0313888 -0.73611 0
-0.0340745 -0.703194 0
-0.224602 -0.968445 0
-0.172428 -0.972289 0
0.0440091 -0.0736769 0
0.0899229 -0.0874047 0
-0.448909 -0.350361 0
-0.499925 -0.393142 0
0.218484 -0.626761 0
0.251927 -0.622799 0
0.00722917 -1.12622 0
-0.0267703 -1.11648 0
0.0220046 -0.0368384 0
0.0545529 -0.0244426 0
-0.117033 -0.759019 0
-0.116975 -0.72805 0
-0.165699 -0.578409 0
-0.213087 -0.564354 0
0.308164 -0.271647 0
0.321917 -0.306548 0
0.0603288 -0.870732 0
0.0738347 -0.825032 0
-0.0797339 -0.609902 0
-0.0486014 -0.593274 0
-0.248548 -0.9446 0
-0.228622 -0.919383 0
-0.328204 -0.360535 0
-0.309287 -0.340239 0
0.187571 -1.25342 0
0.165572 -1.29855 0
-0.145582 -0.766655 0
-0.115688 -0.788137 0
0.0232246 -0.460767 0
0.0088753 -0.515028 0
0.501075 -0.450672 0
0.494645 -0.421338 0
-0.155056 -0.654502 0
-0.130333 -0.668345 0
-0.125306 -1.00528 0
-0.117191 -1.03216 0
0.228852 -1.31842 0
0.224923 -1.29367 0
-0.200655 -0.99229 0
-0.208604 -1.01959 0
-0.159856 -0.770473 0
-0.163875 -0.745815 0
-0.297086 -0.957372 0
-0.30356 -0.929387 0
-0.185606 -0.654674 0
-0.206419 -0.677021 0
0.297062 -0.497319 0
0.284298 -0.520645 0
-0.127431 -1.19744 0
-0.133263 -1.17671 0
0.114603 -1.3692 0
0.0642789 -1.37422 0
0.513771 -0.955706 0
0.499518 -0.995875 0
0.306426 -0.210375 0
0.326295 -0.220259 0
-0.452839 -1.09938 0
-0.473179 -1.11422 0
0.296863 -1.1945 0
0.290957 -1.2345 0
-0.387698 -0.468907 0
-0.396371 -0.453767 0
-0.344903 -0.188733 0
-0.334355 -0.209353 0
0.0766707 -0.612149 0
0.0771076 -0.62939 0
-0.309382 -0.97568 0
-0.29995 -0.990925 0
0.0160499 -0.487897 0
0.0351029 -0.471335 0
-0.0445576 -0.788982 0
-0.0648645 -0.774606 0
-0.0400867 -0.110703 0
-0.0441736 -0.0951257 0
0.148852 -0.850891 0
0.12825 -0.843456 0
0.371607 -0.432082 0
0.385177 -0.453945 0
0.0330068 -0.0552577 0
0.0259689 -0.0674102 0
0.137017 -1.37771 0
0.125936 -1.36071 0
-0.572643 -0.852872 0
-0.579865 -0.862287 0
-0.0519408 -0.489636 0
-0.0559492 -0.500545 0
-0.404228 -0.971334 0
-0.393035 -0.921775 0
-0.345419 -0.820109 0
-0.304039 -0.799446 0
-0.237924 -0.481576 0
-0.258965 -0.469375 0
-0.397585 -0.343344 0
-0.411198 -0.353787 0
0.0399817 -0.717019 0
0.0569798 -0.703399 0
-0.609279 -0.567551 0
-0.607858 -0.613615 0
0.625955 -0.832421 0
0.641174 -0.840382 0
0.110023 -0.184192 0
0.128209 -0.198293 0
-0.0785856 -0.339443 0
-0.0734776 -0.347157 0
0.263575 -0.754391 0
0.260814 -0.73278 0
0.111352 -0.697929 0
0.141499 -0.697433 0
-0.331388 -0.495443 0
-0.34724 -0.469213 0
-0.431064 -0.843018 0
-0.438629 -0.837696 0
0.0453166 -0.135137 0
0.0649819 -0.133352 0
0.198041 -0.331546 0
0.17994 -0.290296 0
-0.147643 -0.602618 0
-0.14417 -0.597455 0
0.526243 -0.910205 0
0.563472 -0.837136 0
-0.659569 -0.793899 0
-0.638896 -0.815945 0
0.100204 -0.430353 0
0.088083 -0.41278 0
0.317586 -1.11482 0
0.31635 -1.11967 0
-0.398631 -0.946554 0
-0.401564 -0.973926 0
0.29156 -0.488109 0
0.330068 -0.457412 0
0.204259 -1.40327 0
0.186327 -1.39796 0
-0.149372 -0.858603 0
-0.161015 -0.858443 0
LINES 399 1197
2 6 1
2 134 2
2 220 3
2 246 4
2 164 5
2 312 6
2 370 7
2 206 8
2 102 9
2 380 10
2 320 11
2 306 12
2 96 13
2 354 14
2 126 15
2 210 16
2 252 17
2 372 18
2 172 19
2 158 20
2 118 21
2 8 22
2 254 23
2 294 24
2 168 25
2 202 26
2 84 27
2 266 28
2 250 29
2 238 30
2 396 31
2 30 32
2 170 33
2 240 34
2 384 35
2 244 36
2 150 37
2 18 38
2 282 39
2 176 40
2 42 41
2 348 42
2 256 43
2 356 44
2 216 45
2 386 46
2 98 47
2 36 48
2 64 49
2 230 50
2 368 51
2 30 52
2 106 53
2 46 54
2 362 55
2 152 56
2 100 57
2 52 58
2 290 59
2 48 60
2 60 61
2 352 62
2 136 63
2 364 64
2 174 65
2 346 66
2 66 67
2 36 68
2 132 69
2 302 70
2 110 71
2 288 72
2 268 73
2 20 74
2 182 75
2 162 76
2 204 77
2 10 78
2 146 79
2 20 80
2 272 81
2 70 82
2 130 83
2 72 84
2 192 85
2 142 86
2 86 87
2 4 88
2 88 89
2 12 90
2 90 91
2 338 92
2 92 93
2 12 94
2 188 95
2 332 96
2 236 97
2 208 98
2 98 99
2 296 100
2 100 101
2 40 102
2 102 103
2 340 104
2 198 105
2 70 106
2 106 107
2 324 108
2 390 109
2 82 110
2 110 111
2 242 112
2 112 113
2 304 114
2 300 115
2 128 116
2 116 117
2 32 118
2 118 119
2 262 120
2 336 121
2 44 122
2 374 123
2 8 124
2 270 125
2 224 126
2 232 127
2 84 128
2 128 129
2 108 130
2 130 131
2 218 132
2 132 133
2 366 134
2 134 135
2 322 136
2 136 137
2 258 138
2 388 139
2 22 140
2 140 141
2 56 142
2 186 143
2 104 144
2 178 145
2 280 146
2 146 147
2 376 148
2 148 149
2 48 150
2 150 151
2 4 152
2 342 153
2 54 154
2 154 155
2 260 156
2 156 157
2 114 158
2 158 159
2 226 160
2 160 161
2 124 162
2 162 163
2 86 164
2 164 165
2 94 166
2 166 167
2 180 168
2 196 169
2 32 170
2 170 171
2 104 172
2 172 173
2 64 174
2 174 175
2 148 176
2 176 177
2 234 178
2 178 179
2 50 180
2 180 181
2 314 182
2 182 183
2 76 184
2 330 185
2 142 186
2 186 187
2 398 188
2 190 189
2 188 190
2 190 191
2 328 192
2 192 193
2 378 194
2 194 195
2 168 196
2 196 197
2 144 198
2 198 199
2 34 200
2 200 201
2 24 202
2 284 203
2 184 204
2 204 205
2 6 206
2 222 207
2 54 208
2 208 209
2 94 210
2 210 211
2 10 212
2 212 213
2 62 214
2 214 215
2 326 216
2 216 217
2 318 218
2 218 219
2 298 220
2 310 221
2 206 222
2 222 223
2 112 224
2 224 225
2 80 226
2 226 227
2 44 228
2 228 229
2 350 230
2 230 231
2 126 232
2 232 233
2 144 234
2 234 235
2 96 236
2 236 237
2 74 238
2 238 239
2 140 240
2 240 241
2 214 242
2 242 243
2 34 244
2 244 245
2 212 246
2 246 247
2 278 248
2 248 249
2 92 250
2 250 251
2 160 252
2 252 253
2 200 254
2 254 255
2 46 256
2 256 257
2 2 258
2 258 259
2 360 260
2 260 261
2 156 262
2 262 263
2 286 264
2 264 265
2 344 266
2 266 267
2 358 268
2 268 269
2 124 270
2 270 271
2 80 272
2 272 273
2 0 274
2 274 275
2 120 276
2 276 277
2 382 278
2 278 279
2 78 280
2 280 281
2 38 282
2 282 283
2 202 284
2 284 285
2 16 286
2 286 287
2 228 288
2 288 289
2 58 290
2 290 291
2 276 292
2 292 293
2 138 294
2 334 295
2 56 296
2 296 297
2 26 298
2 298 299
2 114 300
2 300 301
2 58 302
2 302 303
2 264 304
2 304 305
2 292 306
2 306 307
2 16 308
2 308 309
2 220 310
2 310 311
2 394 312
2 312 313
2 74 314
2 314 315
2 52 316
2 316 317
2 68 318
2 318 319
2 78 320
2 320 321
2 62 322
2 322 323
2 82 324
2 324 325
2 122 326
2 326 327
2 116 328
2 328 329
2 184 330
2 330 331
2 308 332
2 332 333
2 294 334
2 334 335
2 120 336
2 336 337
2 194 338
2 338 339
2 38 340
2 340 341
2 152 342
2 342 343
2 274 344
2 344 345
2 316 346
2 346 347
2 40 348
2 348 349
2 24 350
2 350 351
2 14 352
2 392 353
2 90 354
2 354 355
2 248 356
2 356 357
2 72 358
2 358 359
2 18 360
2 360 361
2 154 362
2 362 363
2 60 364
2 364 365
2 28 366
2 366 367
2 50 368
2 368 369
2 22 370
2 370 371
2 76 372
2 372 373
2 122 374
2 374 375
2 14 376
2 376 377
2 28 378
2 378 379
2 2 380
2 380 381
2 26 382
2 382 383
2 68 384
2 384 385
2 42 386
2 386 387
2 138 388
2 388 389
2 108 390
2 390 391
2 352 392
2 392 393
2 88 394
2 394 395
2 66 396
2 396 397
2 166 398
2 398 399
CELL_DATA 399
SCALARS radius float
LOOKUP_TABLE default
5.196e-09
0.000140301
4.81308e-07
4.56183e-07
5.63519e-08
5.22165e-09
2.48166e-10
3.71312e-10
2.19868e-19
1.7211e-05
9.18391e-06
5.07291e-17
1.44913e-18
6.27381e-18
9.48392e-20
6.72881e-18
3.52437e-21
2.05064e-12
3.7137e-13
1.63163e-20
1.09085e-21
3.41431e-10
8.3032e-12
5.53103e-06
3.0241e-07
1.30331e-06
9.35145e-10
0.00928665
0.000472044
1.63023e-21
1.42736e-22
1.50505e-21
8.72454e-22
2.0285e-11
3.91257e-12
5.35576e-12
2.89901e-12
1.67894e-12
1.02245e-12
2.8839e-19
5.20211e-20
5.58244e-20
8.20707e-21
1.01205e-08
2.96099e-09
1.17954e-20
3.93248e-21
3.64618e-12
7.45843e-13
8.44962e-07
3.98716e-07
9.7377e-22
1.31151e-22
7.09623e-21
2.82603e-21
2.1808e-07
8.09309e-08
5.8357e-22
3.78526e-22
2.24335e-12
1.82624e-12
1.83871e-18
6.50103e-19
8.12161e-13
3.86707e-13
2.59588e-22
2.05604e-22
4.71995e-12
6.74192e-13
1.57254e-22
6.42014e-23
1.51934e-09
4.82219e-10
1.14498e-20
4.53148e-21
1.90025e-11
1.20309e-11
1.63848e-05
6.02364e-06
1.41658e-20
8.21517e-21
8.49207e-23
1.7328e-23
9.86042e-10
1.10916e-10
9.34953e-08
7.91844e-08
2.32215e-07
2.28995e-07
4.15939e-17
4.03621e-17
0.000947481
0.000828885
3.88393e-17
1.1811e-17
1.63792e-18
8.43773e-19
4.37736e-21
2.84643e-21
1.00947e-07
7.92954e-08
2.52636e-19
1.7647e-19
4.79614e-13
2.17619e-13
1.48523e-22
1.00677e-22
2.99741e-23
1.39716e-23
7.36796e-23
5.13445e-23
2.96481e-19
2.70539e-19
1.31854e-19
9.30502e-20
2.90661e-10
2.3554e-10
1.25692e-21
8.82682e-22
8.39818e-15
5.96774e-15
8.466e-09
4.82639e-09
2.25006e-10
1.71349e-10
1.07808e-19
5.92224e-20
5.20396e-10
4.88223e-10
2.10811e-23
1.60905e-23
8.73453e-13
7.11334e-13
0.000684909
0.00068294
8.4796e-19
6.94485e-19
3.52099e-05
2.54608e-05
1.41925e-10
1.37797e-10
1.42168e-07
1.07907e-07
2.98106e-13
1.14194e-13
7.33109e-06
5.59818e-06
1.46664e-18
1.40386e-18
3.33776e-12
2.34048e-12
4.35173e-07
3.23076e-07
4.84502e-21
4.07345e-21
1.05313e-13
1.03997e-13
5.82742e-20
5.78447e-20
5.81971e-21
4.86639e-21
7.96402e-11
7.92779e-11
6.84544e-08
5.21503e-08
3.63321e-17
3.12054e-17
3.47327e-07
2.12458e-07
1.1249e-21
9.12326e-22
4.37663e-13
3.19504e-13
4.94346e-13
3.9786e-13
7.29401e-19
7.14053e-19
1.34145e-13
9.74288e-14
5.91702e-07
5.48771e-07
5.74671e-21
4.59047e-21
1.81417e-11
9.96269e-12
1.27161e-07
9.28213e-08
1.28812e-17
6.87646e-18
7.88194e-18
5.47935e-18
1.28324e-10
9.07978e-11
0.00382428
0.00347875
2.42408e-07
1.66963e-07
2.51464e-13
1.77528e-13
1.70792e-11
1.52628e-11
2.86357e-06
2.17527e-06
1.40795e-11
1.01628e-11
1.27816e-09
1.01379e-09
6.24546e-21
5.42582e-21
2.19876e-17
2.17755e-17
8.87706e-06
8.82089e-06
1.19414e-18
1.13363e-18
3.75641e-09
3.00166e-09
1.69299e-12
1.61164e-12
5.7057e-07
3.3722e-07
1.26763e-09
9.98327e-10
1.84299e-19
1.71076e-19
1.07884e-20
1.01915e-20
7.54662e-09
7.17711e-09
1.86167e-06
1.80174e-06
7.36802e-20
5.77183e-20
2.19605e-13
2.01462e-13
1.10549e-18
9.08686e-19
6.01737e-21
5.97722e-21
6.23419e-11
6.16176e-11
6.26555e-19
6.03596e-19
1.49851e-11
1.47535e-11
2.36308e-06
2.3574e-06
8.67216e-08
8.45567e-08
0.000655058
0.000560305
4.34207e-21
3.36453e-21
1.12569e-11
9.48756e-12
1.08683e-20
9.00805e-21
0.000124244
0.000123294
4.08286e-13
4.05937e-13
3.50987e-14
3.49377e-14
1.23477e-18
1.21085e-18
0.046889
0.0467672
6.45021e-10
5.38585e-10
2.2163e-10
1.80242e-10
1.16643e-20
1.01074e-20
1
0.993887
3.21014e-15
3.18819e-15
2.24362e-07
2.19958e-07
1.25788e-05
1.1687e-05
1.39367e-12
1.17881e-12
2.77059e-06
2.22226e-06
3.94538e-18
3.90464e-18
3.91688e-09
3.83914e-09
5.00777e-22
4.14758e-22
8.76694e-16
8.6656e-16
1.39109e-05
1.06599e-05
1.95728e-07
1.86333e-07
1.14066e-06
1.09094e-06
1.27945e-19
1.08825e-19
4.18225e-22
4.10679e-22
4.75181e-19
4.71773e-19
2.84784e-16
2.84247e-16
6.24236e-18
5.77169e-18
4.20307e-07
3.29895e-07
2.51059e-08
2.50303e-08
1.08666e-20
1.03021e-20
8.98193e-22
8.07798e-22
2.95926e-12
2.76166e-12
1.34042e-05
1.17778e-05
1.65263e-18
1.57459e-18
5.96672e-23
5.7031e-23
6.9661e-09
6.58111e-09
2.25643e-10
2.10862e-10
1.4705e-11
1.2988e-11
3.70789e-18
3.59813e-18
1.36131e-05
1.09457e-05
8.23883e-15
7.02511e-15
0.00240045
0.0023502
1.2653e-12
1.2419e-12
4.16093e-07
3.37131e-07
0.263172
0.262675
5.82356e-22
5.64628e-22
1.98832e-19
1.97354e-19
5.26234e-06
5.1835e-06
4.032e-18
3.12642e-18
1.83767e-17
1.81296e-17
3.62498e-08
3.59849e-08
1.36594e-09
1.3162e-09
1.57279e-12
1.56356e-12
3.58674e-21
2.86726e-21
1.73238e-12
1.67071e-12
0.00381827
0.00381091
7.34409e-07
6.92938e-07
3.33052e-10
2.78752e-10
9.6224e-12
9.59126e-12
6.45327e-09
5.38687e-09
5.66075e-18
5.62774e-18
0.0090663
0.00883356
9.44988e-05
9.43081e-05
9.00277e-07
8.95608e-07
4.2951e-12
2.68429e-12
3.21368e-20
3.15982e-20
3.44707e-05
2.90257e-05
2.59928e-23
2.45708e-23
3.90028e-18
3.06427e-18
8.00891e-08
7.92581e-08
2.06464e-22
1.80625e-22
2.59979e-17
2.4898e-17
