# vtk DataFile Version 3.0
Tree
ASCII
DATASET POLYDATA
POINTS 800 float
-0.004 0.02 0.0265
0.0065 0.01 0.026302
0.00461 0.0117065 0.0248517
0.00725 0.009063 0.02275
0.00669862 0.00931291 0.0233525
0.008403 0.00575 0.023
0.0022342 0.0148672 0.0235433
0.004365 0.0135 0.02175
0.00789789 0.00692702 0.0228084
0.009056 0.00525 0.02075
0.00808356 0.00591314 0.0229219
0.00825 0.001955 0.02325
0.00708459 0.00913797 0.0229307
0.00752 0.0095 0.0185
-0.00017632 0.0167854 0.0237773
0.00075 0.015852 0.021
0.00738938 0.00939139 0.0198292
0.004546 0.01225 0.0175
0.00818675 0.00345909 0.0231253
0.009057 0.0015 0.0205
0.00748081 0.00946742 0.0188988
0.009558 0.00625 0.01675
0.00819606 0.00218806 0.0230914
0.008059 -0.001 0.0225
0.000555312 0.0157768 0.0211309
0.001378 0.01425 0.0175
0.00750824 0.00949023 0.0186196
0.00755 0.00925 0.015
-0.00193521 0.0182641 0.0250298
-0.00275 0.017053 0.02075
0.00909404 0.00658796 0.0173302
0.01025 0.002459 0.01675
0.00509727 0.0114695 0.0177089
0.003 0.012188 0.0145
0.00822634 -0.000329821 0.0222076
0.0085 -0.00225 0.02078
-0.00241927 0.0170057 0.0211194
-0.0025 0.0155 0.017178
0.00941881 0.00635139 0.0169241
0.009373 0.007 0.01375
0.0081092 -0.000798946 0.0224123
0.007057 -0.00475 0.02525
-0.00265078 0.0170388 0.0208608
-0.005 0.01675 0.019451
-0.0022332 0.0156832 0.0179372
-0.00075 0.013905 0.015
0.00396474 0.0118575 0.0159761
0.00525 0.010572 0.0125
0.00471138 0.0120158 0.0175627
-0.007 0.017 0.024302
0.00834243 -0.0020939 0.0208784
0.00825 -0.003887 0.0195
0.00845273 -0.00220317 0.0208095
0.009557 -0.00175 0.0165
0.00990321 0.00369769 0.0169241
0.011056 0.00225 0.0135
0.00302266 0.0121236 0.0146316
0.00075 0.012554 0.01175
-0.00569561 0.0151326 0.0228649
-0.00975 0.015046 0.02425
-0.00756063 0.0150928 0.023502
-0.010077 0.01125 0.0225
-0.00459777 0.0167259 0.0200213
-0.008 0.015856 0.02
-0.00487933 0.0167428 0.0196221
-0.0065 0.0155 0.016962
-0.00178824 0.0151498 0.0170561
-0.004152 0.01425 0.014
0.0107102 0.00268431 0.0145272
0.011057 0.0045 0.01125
0.00923508 0.00716056 0.0140396
0.008815 0.0085 0.01025
0.00726927 -0.00406822 0.0242738
0.006544 -0.0075 0.02375
0.00705169 -0.00509775 0.0241167
0.0075 -0.00625 0.021256
-0.0072984 0.015796 0.0199007
-0.00955 0.01375 0.01925
0.00919053 -0.00215236 0.0175236
0.009069 -0.00375 0.0155
0.00116043 0.0124929 0.0127936
-0.002 0.013194 0.012
0.00486442 0.0109576 0.0135428
0.0035 0.011569 0.00975
0.00423679 0.0112389 0.0117981
0.0065 0.010687 0.009
-0.0099536 0.0115168 0.0230031
-0.012 0.0085 0.022815
-0.01004 0.01133 0.0226509
-0.011 0.01025 0.02028
0.00820496 -0.00376868 0.019711
0.00775 -0.0065 0.018349
-0.00637742 0.0156054 0.0175455
-0.00875 0.013856 0.016
0.00946712 -0.00192664 0.016567
0.01025 -0.001546 0.01325
0.0109345 0.00232769 0.0135567
0.01125 0.001471 0.01075
0.000796005 0.0125902 0.0118137
-0.000182 0.013 0.009
0.00910762 0.00830341 0.0104595
0.0095 0.008946 0.00775
-0.0114825 0.00883098 0.0227867
-0.01225 0.005046 0.02225
0.00776923 -0.00583286 0.0190219
0.00675 -0.008563 0.01975
-0.00911007 0.0139964 0.0192157
-0.01075 0.011564 0.01775
0.00907941 -0.00378657 0.0156357
0.009002 -0.00525 0.01425
-0.00417214 0.0142716 0.0141035
-0.00625 0.013556 0.01175
0.000111402 0.0128771 0.00984412
-0.003 0.01325 0.009347
0.0109904 0.00408606 0.0116448
0.01125 0.005045 0.00775
0.00352393 0.0116187 0.00995299
0.00225 0.012561 0.00725
0.00651729 -0.00711421 0.0240883
0.005084 -0.01075 0.02525
-0.0119554 0.00547432 0.0220717
-0.012075 0.00225 0.021
-0.010804 0.010173 0.0209366
-0.012 0.007 0.019043
-0.0114498 0.00845959 0.0199141
-0.012069 0.00875 0.017
-0.00841077 0.0139185 0.0161446
-0.01025 0.01208 0.01475
0.00903141 -0.00469389 0.0147765
0.009555 -0.004 0.012
0.00954593 -0.00390735 0.0124617
0.0105 -0.002 0.009943
0.0111379 0.00177637 0.0110878
0.011058 0.002 0.00775
0.00915897 0.00897365 0.00852333
0.008045 0.01075 0.0065
0.00804359 0.0103129 0.00713816
0.00525 0.012069 0.006
0.00688519 -0.00810432 0.0198684
0.00575 -0.010552 0.022
-0.0118774 0.00715218 0.0193769
-0.0125 0.004438 0.01925
0.00765635 -0.00643217 0.0185571
0.007 -0.008827 0.017
-0.00999841 0.0123314 0.0151615
-0.012 0.01033 0.015
-0.0101745 0.0121554 0.0148735
-0.00925 0.012565 0.0125
-0.00617131 0.0135878 0.0118248
-0.00775 0.013056 0.01
-0.000251885 0.0129458 0.0091855
-0.00175 0.013061 0.00725
0.00939769 0.0089543 0.007982
0.01057 0.007 0.00575
0.00946931 0.00894849 0.0078196
0.009841 0.00925 0.005
-0.0122225 0.00273557 0.0214294
-0.013359 -0.0005 0.022
0.00654464 -0.00883863 0.0205079
0.005555 -0.0115 0.01925
-0.0119632 0.00704565 0.0191432
-0.013 0.005574 0.017
-0.012689 0.0060155 0.0176429
-0.01325 0.00725 0.015046
0.0071969 -0.00810855 0.0174671
0.007029 -0.00875 0.0135
0.00901082 -0.00508317 0.014408
0.00825 -0.006549 0.0115
0.00955228 -0.00397221 0.0121385
0.00925 -0.004549 0.00925
-0.00689751 0.0133431 0.0109854
-0.00575 0.013557 0.00775
0.0110827 0.00234844 0.0082581
0.011055 0.0035 0.00575
0.00223766 0.0124818 0.00748496
0.00075 0.013355 0.005
0.00801897 0.0105971 0.00656152
0.007865 0.0115 0.00425
0.00514323 -0.0106474 0.0249712
0.004067 -0.0135 0.02525
-0.0130369 0.000163603 0.0216201
-0.01325 -0.002 0.020387
-0.0121192 0.00239567 0.0211288
-0.013082 0.00075 0.01825
0.00694117 -0.00871125 0.0171706
0.00575 -0.011028 0.01625
0.00695714 -0.00868418 0.0153071
0.006 -0.01025 0.014223
-0.0112443 0.0110813 0.0147195
-0.01275 0.009549 0.0125
-0.00952736 0.0124421 0.013212
-0.01105 0.01125 0.01075
-0.00765983 0.0131257 0.0100219
-0.00875 0.013 0.008256
0.0110654 0.00210453 0.00790243
0.01025 -0.001046 0.00675
-0.00178075 0.0131538 0.0075342
-0.004 0.013557 0.0055
0.0109233 0.0034815 0.00599259
0.010553 0.00475 0.00375
0.00579427 0.011735 0.0059573
0.00375 0.01307 0.0035
0.00973317 0.00889947 0.00570294
0.01 0.0075 0.002972
0.00473426 -0.0117314 0.0250771
0.0045 -0.013827 0.02225
0.0056745 -0.0110964 0.0196584
0.0045 -0.01375 0.019741
0.00589662 -0.0106588 0.0166036
0.0045 -0.012859 0.017
-0.0129067 0.00570645 0.0171929
-0.014 0.00275 0.015756
-0.0133221 0.004583 0.0166469
-0.014189 0.0045 0.014
-0.0125252 0.00964085 0.0130993
-0.014048 0.00725 0.0125
0.00693554 -0.00874917 0.0136029
0.0065 -0.008871 0.01075
0.00842346 -0.00615833 0.0117305
0.008 -0.006829 0.009
0.00936662 -0.00425229 0.0097149
0.0095 -0.003542 0.007
-0.0063272 0.0134886 0.00815533
-0.0065 0.013557 0.0055
0.0107556 0.000907329 0.00746451
0.010067 0.0005 0.00425
0.000736051 0.0131321 0.00530519
-0.001 0.013557 0.00325
0.00771547 0.0114036 0.00462911
0.0065 0.012553 0.0025
0.00985591 0.00825571 0.00444671
0.008855 0.00975 0.002
0.00420212 -0.013161 0.0249795
0.003364 -0.0155 0.02375
-0.0131861 -0.00135092 0.0207569
-0.01375 -0.00525 0.021935
-0.0133247 -0.00186204 0.0204111
-0.014053 -0.00375 0.019
-0.0129856 0.000844331 0.0188563
-0.01425 -0.00175 0.017029
-0.013887 0.00289491 0.0159412
-0.0145 0.00025 0.015361
0.006055 -0.00999736 0.0145712
0.004 -0.01236 0.014
-0.0140245 0.00484571 0.0142443
-0.014561 0.00525 0.01225
-0.0127224 0.00950813 0.0125736
-0.0135 0.00887 0.0105
-0.0109506 0.01143 0.0107809
-0.012 0.010871 0.00875
-0.00870065 0.0129016 0.00855695
-0.0105 0.012055 0.007
0.0102815 -0.000697101 0.00669792
0.0095 -0.002321 0.005
-0.00311826 0.0134159 0.00593197
-0.00325 0.013557 0.0035
0.0102435 0.000854279 0.00483792
0.01 0.002245 0.00225
0.00375062 0.01294 0.00363615
0.002 0.01375 0.00188
0.0105156 0.0044075 0.0040055
0.009572 0.00475 0.00125
0.00639895 0.0124635 0.00276132
0.00475 0.013547 0.001
0.00364138 -0.0146885 0.0239003
0.00325 -0.015551 0.02175
0.00328567 -0.0153199 0.0219806
0.00275 -0.015564 0.01925
0.00452692 -0.0126592 0.0168731
0.003 -0.01466 0.017
0.0043076 -0.0119932 0.0144491
0.00275 -0.01375 0.014951
-0.0139661 0.00279347 0.0158116
-0.015 0.00175 0.013357
0.0060165 -0.0101742 0.0143275
0.0045 -0.011308 0.01175
-0.0144178 0.00528084 0.0125085
-0.014573 0.00625 0.01025
0.0064426 -0.00900317 0.0112403
0.00525 -0.01005 0.00875
0.00793934 -0.00681578 0.00949225
0.00675 -0.008028 0.00725
0.00758253 -0.00717945 0.00881957
0.008 -0.005852 0.006
-0.00644816 0.0135365 0.0062966
-0.009 0.01305 0.005
0.00951053 -0.00215261 0.00528344
0.008068 -0.00425 0.00375
-0.00639941 0.0135449 0.00558499
-0.006 0.013557 0.00275
0.0100129 0.00114517 0.00367187
0.009066 0.00025 0.0015
0.00981951 0.0077295 0.00317707
0.009071 0.00725 0.00075
0.00881578 0.00960137 0.00209721
0.007857 0.0105 0.00025
0.00793261 0.0105024 0.000678747
0.006548 0.01225 -0.00025
-0.0137082 -0.00515422 0.0217405
-0.014084 -0.00825 0.02225
-0.0135778 -0.00397647 0.0211176
-0.014082 -0.00625 0.01975
-0.0140151 -0.00370585 0.0190444
-0.01475 -0.00575 0.017546
-0.0141686 -0.00168736 0.0171794
-0.015043 -0.00375 0.016
-0.0145009 -0.00247116 0.0167313
-0.015071 -0.00225 0.01425
0.00371571 -0.0126608 0.0146398
0.002 -0.013412 0.01275
-0.0147322 0.00217174 0.0137248
-0.015081 0.00275 0.01125
0.00458396 -0.0111935 0.0118086
0.0035 -0.011871 0.00975
-0.0133491 0.00881165 0.0107694
-0.014072 0.00775 0.0085
-0.0118917 0.0108368 0.00908834
-0.01325 0.009549 0.00725
-0.0103442 0.0120468 0.00714822
-0.012 0.011058 0.00575
0.00767889 -0.00644233 0.00677055
0.00675 -0.00675 0.004455
-0.00618373 0.0135514 0.0040541
-0.008 0.013364 0.00275
0.00935008 0.000518552 0.00215156
0.0085 -0.00225 0.001742
-0.000531266 0.0135121 0.0034549
-0.001 0.014056 0.00075
0.0092194 0.000395018 0.00185184
0.009 0.002 -4.2e-05
0.00471766 0.0133428 0.00114362
0.00275 0.014056 -0.0005
0.00787968 0.0105007 0.000378624
0.008188 0.0085 -0.001
0.00344721 -0.0152565 0.0237951
0.0015 -0.017891 0.0255
0.0032607 -0.0154817 0.0218192
0.001558 -0.018 0.02225
0.00274989 -0.0162372 0.0219484
0.0015 -0.017373 0.02
0.00268463 -0.0156331 0.0197773
0.00125 -0.016528 0.01775
0.00283574 -0.0136743 0.0149788
0.0015 -0.01531 0.01575
0.00232816 -0.0142959 0.0152719
0.0005 -0.015017 0.014
-0.0149197 0.00187652 0.0134673
-0.015525 -0.0005 0.01275
0.00226903 -0.0132122 0.0128647
0.001 -0.013557 0.011
-0.0149635 0.00291496 0.0115519
-0.01506 0.004 0.0095
-0.0145958 0.00591833 0.0105798
[...]
CELL_DATA 799
SCALARS radius float
LOOKUP_TABLE default
0.114872
1.13904
0.0632864
1.13865
0.0703564
1.13943
0.11509
0.818681
0.117316
0.817877
0.0674455
0.975246
0.0551098
1.14038
0.0741318
0.975157
0.0674647
0.817703
0.124191
0.700429
0.0655274
0.816747
0.0646194
0.154907
0.149028
0.132329
0.129063
1.18194
0.0551085
0.698851
0.101195
0.835713
0.0608527
0.816594
0.0495274
0.551894
0.0868528
0.48765
0.0744399
0.655499
0.101029
0.36925
0.062447
0.490146
0.117239
0.402224
0.102381
0.803424
0.124358
0.640592
0.068453
0.480296
0.0743791
0.608534
0.0614356
0.286057
0.0595597
0.803266
0.121015
0.802271
0.0653362
0.36884
0.0966005
0.350031
0.0855005
0.489235
0.0551367
0.6076
0.103034
0.487255
0.0805554
0.65529
0.0835068
0.654488
0.128995
0.193917
0.108053
0.480121
0.062825
0.285136
0.142796
0.346679
0.0717472
0.343677
0.140413
0.801352
0.0909628
0.523448
0.0943312
0.533768
0.0701964
0.349367
0.0805734
0.155548
0.149659
0.602326
0.0829698
0.27266
0.0836442
0.486676
0.0550351
0.718666
0.0906935
0.533392
0.0931189
0.185573
0.172456
0.474616
0.0728586
0.486981
0.058104
0.271709
0.159149
0.179572
0.167468
0.335679
0.0799414
0.652814
0.0755493
0.718179
0.0723666
0.523108
0.0633276
0.522084
0.139561
0.347651
0.0704611
0.474249
0.0737966
0.237127
0.158233
0.602113
0.068122
0.485939
0.0723404
0.311036
0.113453
0.231161
0.145532
0.518738
0.139698
0.518509
0.0729018
0.346203
0.120091
0.278951
0.111012
0.486745
0.0629165
0.252132
0.105402
0.439091
0.139635
0.434333
0.10239
0.717697
0.105651
0.22601
0.125135
0.515339
0.0795945
0.51502
0.145753
0.51808
0.0691054
0.453602
0.0920632
0.210833
0.127422
0.486469
0.0976605
0.601587
0.0777893
0.334583
0.0955959
0.259013
0.100195
0.652358
0.085662
0.611991
0.0738457
0.519827
0.099569
0.217883
0.104883
0.504902
0.0660354
0.270481
0.0764453
0.277444
0.0921081
0.239032
0.088893
0.497627
0.0851695
0.249026
0.168865
0.455473
0.0900878
0.233396
0.111209
0.434038
0.0997538
0.65202
0.140993
0.203782
0.186654
0.215128
0.108631
0.511099
0.0626834
0.510455
0.106714
0.262348
0.173852
0.263577
0.106082
0.452974
0.0967043
0.207775
0.190386
0.466417
0.0673594
0.497201
0.101771
0.333055
0.110998
0.257119
0.106577
0.43213
0.077069
0.649815
0.0770531
0.610939
0.0818935
0.234805
0.0710646
0.519359
0.0766414
0.487751
0.152493
0.479724
0.103281
0.256974
0.108926
0.233933
0.128017
0.271389
0.120237
0.23757
0.0938241
0.338766
0.0884729
0.242565
0.211469
0.438012
0.131574
0.224095
0.214566
0.454715
0.0912506
0.251943
0.129144
0.649318
0.061264
0.613831
0.0956165
0.206475
0.195921
0.425286
0.0707485
0.482731
0.0863482
0.322303
0.0751049
0.250687
0.14889
0.261984
0.115805
0.451703
0.0880719
0.450221
0.140157
0.464985
0.0923417
0.336962
0.0959101
0.420727
0.0628485
0.436173
0.0717477
0.175179
0.163655
0.422313
0.0575044
0.421456
0.10051
0.440706
0.0704999
0.599152
0.0858779
0.232345
0.127851
0.518136
0.0772306
0.517576
0.150472
0.423246
0.113891
0.482379
0.0758722
0.321376
0.101268
0.231179
0.217274
0.267805
0.150314
0.233347
0.103769
0.201318
0.175506
0.420151
0.0830118
0.432145
0.108702
0.330409
0.120387
0.31996
0.150426
0.245419
0.232868
0.206558
0.159222
0.348915
0.102977
0.360531
0.0601361
0.35994
0.141734
0.569207
0.0944279
0.408901
0.133954
0.408193
0.0851906
0.173645
0.166215
0.195315
0.181445
0.474759
0.129596
0.243635
0.223479
0.256053
0.134404
0.436382
0.0654865
0.435183
0.0713533
0.296483
0.0966657
0.334917
0.0968476
0.352276
0.0713671
0.30847
0.119253
0.453534
0.0763528
0.404222
0.0861455
0.452299
0.0949216
0.168411
0.166146
0.439761
0.0957347
0.256603
0.132605
0.505917
0.0979091
0.568307
0.0806793
0.230108
0.216118
0.513302
0.0735645
0.403327
0.0963297
0.512719
0.0888733
0.419864
0.170896
0.227555
0.123967
0.320003
0.113059
0.456651
0.101767
0.259469
0.241429
0.258423
0.103921
0.228177
0.220786
0.4024
0.136058
0.312273
0.0806584
0.36329
0.102731
0.210305
0.117689
0.325275
0.166387
0.326179
0.149093
0.307171
0.156423
0.378298
0.110826
0.316288
0.091139
0.40214
0.138302
0.347658
0.102483
0.35246
0.149581
0.343241
0.0807754
0.342624
0.157902
0.505091
0.10396
0.567436
0.110023
0.566892
0.11605
0.393149
0.104281
0.402056
0.0842553
0.385714
0.14285
0.224708
0.211353
0.453145
0.15122
0.2479
0.233962
0.419885
0.126667
0.417883
0.0902578
0.344089
0.0958362
0.293467
0.129829
0.310305
0.166344
0.332274
0.106009
0.360017
0.11288
0.310062
0.12286
0.301058
0.0845529
0.393408
0.0716437
0.376803
0.130537
0.392447
0.104826
0.313412
0.0956378
0.408464
0.145741
0.331059
0.124032
0.254817
0.188582
0.242236
0.195808
0.552882
0.107852
0.551426
0.0787121
0.503862
0.093461
0.236191
0.139962
0.196672
0.188646
0.392289
0.116641
0.288297
0.111141
0.410206
0.14157
0.322118
0.123691
0.316586
0.105039
0.266942
0.124006
0.257013
0.125699
0.396153
0.126252
0.343063
0.0971202
0.290122
0.0928778
0.293475
0.129803
0.200491
0.191064
0.208418
0.195072
0.337967
0.126818
0.320619
0.151366
0.286267
0.158442
0.261895
0.115067
0.221685
0.202055
0.37358
0.134298
0.310822
0.158895
0.34462
0.0724626
0.406704
0.103346
0.329448
0.124669
0.19293
0.180969
0.543438
0.120682
0.502382
0.0924993
0.526572
0.106905
0.525986
0.0866195
0.246255
0.157025
0.226457
0.207014
0.241684
0.217191
0.285878
0.217654
0.389817
0.117586
0.23545
0.226888
0.408811
0.128842
0.403072
0.0728169
0.311705
0.149955
0.398635
0.146822
0.25122
0.240259
0.249673
0.239029
0.413967
0.206217
0.367995
0.189352
0.289928
0.113087
0.279783
0.15583
0.329509
0.107029
0.29143
0.184955
0.32581
0.181406
0.308797
0.0817282
0.205137
0.200232
0.30949
0.18541
0.28954
0.1602
0.348921
0.0975536
0.345738
0.106255
0.241019
0.233929
0.341572
0.127791
0.400367
0.105806
0.323481
0.141748
0.302484
0.119537
0.298408
0.221076
0.48183
0.160427
0.243759
0.149981
0.475828
0.110029
0.524509
0.101632
0.404493
0.174556
0.47466
0.1319
0.427479
0.0781685
0.42629
0.177425
0.449444
0.144603
0.445625
0.138857
0.415789
0.0935268
0.44049
0.102246
0.401344
0.117001
0.435842
0.231592
0.386304
0.140602
0.382638
0.109525
0.312467
0.181582
0.376202
0.149752
0.373082
0.219678
0.307677
0.207159
0.397823
0.147106
0.340551
0.0970032
0.394585
0.226384
0.212104
0.205087
0.362973
0.219679
0.280977
0.209634
0.274733
0.225873
0.28258
0.173558
0.333717
0.143189
0.302173
0.156939
0.327497
0.174395
0.217373
0.213451
0.245669
0.221379
0.280411
0.261769
0.260096
0.171487
0.307774
0.1932
0.292955
0.261738
0.308713
0.115745
0.218491
0.202822
0.331715
0.16184
0.317187
0.134411
0.307455
0.231339
0.250757
0.241354
0.23347
0.210688
0.25279
0.154295
0.393353
0.159219
0.245642
0.223395
0.391079
0.138876
0.382076
0.110754
0.375859
0.160991
0.372626
0.140922
0.362327
0.204995
0.414866
0.189053
0.355077
0.330661
0.356329
0.13152
0.354168
0.228189
0.243273
0.237097
0.268718
0.261111
0.319266
0.197013
0.408953
0.205636
0.311646
0.282817
0.382525
0.204574
0.305868
0.282847
0.361592
0.338296
0.295314
0.256442
0.364859
0.217752
0.336108
0.302369
0.310562
0.234891
0.391042
0.183247
0.383976
0.188192
0.369527
0.352483
0.257095
0.252407
0.344912
0.312204
0.276329
0.258711
0.243189
0.236072
0.253225
0.222462
0.272357
0.242346
0.258731
0.237842
0.249697
0.232896
0.269424
0.242458
0.296917
0.270545
0.252361
0.222592
0.301206
0.15038
0.303168
0.201468
0.294116
0.258456
0.297756
0.165855
0.284378
0.264171
0.307376
0.165463
0.301805
0.184755
0.257458
0.251358
0.284223
0.255371
0.26886
0.24769
0.255518
0.242464
