# vtk DataFile Version 3.0
Tree
ASCII
DATASET POLYDATA
POINTS 400 float
-0.004 0.02 0.0265
0.0065 0.01 0.026302
0.00461 0.0117065 0.0248517
0.00725 0.009063 0.02275
0.00669862 0.00931291 0.0233525
0.008403 0.00575 0.023
0.0022342 0.0148672 0.0235433
0.004365 0.0135 0.02175
0.00789789 0.00692702 0.0228084
0.009056 0.00525 0.02075
0.00808356 0.00591314 0.0229219
0.00825 0.001955 0.02325
0.00708459 0.00913797 0.0229307
0.00752 0.0095 0.0185
-0.00017632 0.0167854 0.0237773
0.00075 0.015852 0.021
0.00738938 0.00939139 0.0198292
0.004546 0.01225 0.0175
0.00818675 0.00345909 0.0231253
0.009057 0.0015 0.0205
0.00748081 0.00946742 0.0188988
0.009558 0.00625 0.01675
0.00819606 0.00218806 0.0230914
0.008059 -0.001 0.0225
0.000555312 0.0157768 0.0211309
0.001378 0.01425 0.0175
0.00750824 0.00949023 0.0186196
0.00755 0.00925 0.015
-0.00193521 0.0182641 0.0250298
-0.00275 0.017053 0.02075
0.00909404 0.00658796 0.0173302
0.01025 0.002459 0.01675
0.00509727 0.0114695 0.0177089
0.003 0.012188 0.0145
0.00822634 -0.000329821 0.0222076
0.0085 -0.00225 0.02078
-0.00241927 0.0170057 0.0211194
-0.0025 0.0155 0.017178
0.00941881 0.00635139 0.0169241
0.009373 0.007 0.01375
0.0081092 -0.000798946 0.0224123
0.007057 -0.00475 0.02525
-0.00265078 0.0170388 0.0208608
-0.005 0.01675 0.019451
-0.0022332 0.0156832 0.0179372
-0.00075 0.013905 0.015
0.00396474 0.0118575 0.0159761
0.00525 0.010572 0.0125
0.00471138 0.0120158 0.0175627
-0.007 0.017 0.024302
0.00834243 -0.0020939 0.0208784
0.00825 -0.003887 0.0195
0.00845273 -0.00220317 0.0208095
0.009557 -0.00175 0.0165
0.00990321 0.00369769 0.0169241
0.011056 0.00225 0.0135
0.00302266 0.0121236 0.0146316
0.00075 0.012554 0.01175
-0.00569561 0.0151326 0.0228649
-0.00975 0.015046 0.02425
-0.00756063 0.0150928 0.023502
-0.010077 0.01125 0.0225
-0.00459777 0.0167259 0.0200213
-0.008 0.015856 0.02
-0.00487933 0.0167428 0.0196221
-0.0065 0.0155 0.016962
-0.00178824 0.0151498 0.0170561
-0.004152 0.01425 0.014
0.0107102 0.00268431 0.0145272
0.011057 0.0045 0.01125
0.00923508 0.00716056 0.0140396
0.008815 0.0085 0.01025
0.00726927 -0.00406822 0.0242738
0.006544 -0.0075 0.02375
0.00705169 -0.00509775 0.0241167
0.0075 -0.00625 0.021256
-0.0072984 0.015796 0.0199007
-0.00955 0.01375 0.01925
0.00919053 -0.00215236 0.0175236
0.009069 -0.00375 0.0155
0.00116043 0.0124929 0.0127936
-0.002 0.013194 0.012
0.00486442 0.0109576 0.0135428
0.0035 0.011569 0.00975
0.00423679 0.0112389 0.0117981
0.0065 0.010687 0.009
-0.0099536 0.0115168 0.0230031
-0.012 0.0085 0.022815
-0.01004 0.01133 0.0226509
-0.011 0.01025 0.02028
0.00820496 -0.00376868 0.019711
0.00775 -0.0065 0.018349
-0.00637742 0.0156054 0.0175455
-0.00875 0.013856 0.016
0.00946712 -0.00192664 0.016567
0.01025 -0.001546 0.01325
0.0109345 0.00232769 0.0135567
0.01125 0.001471 0.01075
0.000796005 0.0125902 0.0118137
-0.000182 0.013 0.009
0.00910762 0.00830341 0.0104595
0.0095 0.008946 0.00775
-0.0114825 0.00883098 0.0227867
-0.01225 0.005046 0.02225
0.00776923 -0.00583286 0.0190219
0.00675 -0.008563 0.01975
-0.00911007 0.0139964 0.0192157
-0.01075 0.011564 0.01775
0.00907941 -0.00378657 0.0156357
0.009002 -0.00525 0.01425
-0.00417214 0.0142716 0.0141035
-0.00625 0.013556 0.01175
0.000111402 0.0128771 0.00984412
-0.003 0.01325 0.009347
0.0109904 0.00408606 0.0116448
0.01125 0.005045 0.00775
0.00352393 0.0116187 0.00995299
0.00225 0.012561 0.00725
0.00651729 -0.00711421 0.0240883
0.005084 -0.01075 0.02525
-0.0119554 0.00547432 0.0220717
-0.012075 0.00225 0.021
-0.010804 0.010173 0.0209366
-0.012 0.007 0.019043
-0.0114498 0.00845959 0.0199141
-0.012069 0.00875 0.017
-0.00841077 0.0139185 0.0161446
-0.01025 0.01208 0.01475
0.00903141 -0.00469389 0.0147765
0.009555 -0.004 0.012
0.00954593 -0.00390735 0.0124617
0.0105 -0.002 0.009943
0.0111379 0.00177637 0.0110878
0.011058 0.002 0.00775
0.00915897 0.00897365 0.00852333
0.008045 0.01075 0.0065
0.00804359 0.0103129 0.00713816
0.00525 0.012069 0.006
0.00688519 -0.00810432 0.0198684
0.00575 -0.010552 0.022
-0.0118774 0.00715218 0.0193769
-0.0125 0.004438 0.01925
0.00765635 -0.00643217 0.0185571
0.007 -0.008827 0.017
-0.00999841 0.0123314 0.0151615
-0.012 0.01033 0.015
-0.0101745 0.0121554 0.0148735
-0.00925 0.012565 0.0125
-0.00617131 0.0135878 0.0118248
-0.00775 0.013056 0.01
-0.000251885 0.0129458 0.0091855
-0.00175 0.013061 0.00725
0.00939769 0.0089543 0.007982
0.01057 0.007 0.00575
0.00946931 0.00894849 0.0078196
0.009841 0.00925 0.005
-0.0122225 0.00273557 0.0214294
-0.013359 -0.0005 0.022
0.00654464 -0.00883863 0.0205079
0.005555 -0.0115 0.01925
-0.0119632 0.00704565 0.0191432
-0.013 0.005574 0.017
-0.012689 0.0060155 0.0176429
-0.01325 0.00725 0.015046
0.0071969 -0.00810855 0.0174671
0.007029 -0.00875 0.0135
0.00901082 -0.00508317 0.014408
0.00825 -0.006549 0.0115
0.00955228 -0.00397221 0.0121385
0.00925 -0.004549 0.00925
-0.00689751 0.0133431 0.0109854
-0.00575 0.013557 0.00775
0.0110827 0.00234844 0.0082581
0.011055 0.0035 0.00575
0.00223766 0.0124818 0.00748496
0.00075 0.013355 0.005
0.00801897 0.0105971 0.00656152
0.007865 0.0115 0.00425
0.00514323 -0.0106474 0.0249712
0.004067 -0.0135 0.02525
-0.0130369 0.000163603 0.0216201
-0.01325 -0.002 0.020387
-0.0121192 0.00239567 0.0211288
-0.013082 0.00075 0.01825
0.00694117 -0.00871125 0.0171706
0.00575 -0.011028 0.01625
0.00695714 -0.00868418 0.0153071
0.006 -0.01025 0.014223
-0.0112443 0.0110813 0.0147195
-0.01275 0.009549 0.0125
-0.00952736 0.0124421 0.013212
-0.01105 0.01125 0.01075
-0.00765983 0.0131257 0.0100219
-0.00875 0.013 0.008256
0.0110654 0.00210453 0.00790243
0.01025 -0.001046 0.00675
-0.00178075 0.0131538 0.0075342
-0.004 0.013557 0.0055
0.0109233 0.0034815 0.00599259
0.010553 0.00475 0.00375
0.00579427 0.011735 0.0059573
0.00375 0.01307 0.0035
0.00973317 0.00889947 0.00570294
0.01 0.0075 0.002972
0.00473426 -0.0117314 0.0250771
0.0045 -0.013827 0.02225
0.0056745 -0.0110964 0.0196584
0.0045 -0.01375 0.019741
0.00589662 -0.0106588 0.0166036
0.0045 -0.012859 0.017
-0.0129067 0.00570645 0.0171929
-0.014 0.00275 0.015756
-0.0133221 0.004583 0.0166469
-0.014189 0.0045 0.014
-0.0125252 0.00964085 0.0130993
-0.014048 0.00725 0.0125
0.00693554 -0.00874917 0.0136029
0.0065 -0.008871 0.01075
0.00842346 -0.00615833 0.0117305
0.008 -0.006829 0.009
0.00936662 -0.00425229 0.0097149
0.0095 -0.003542 0.007
-0.0063272 0.0134886 0.00815533
-0.0065 0.013557 0.0055
0.0107556 0.000907329 0.00746451
0.010067 0.0005 0.00425
0.000736051 0.0131321 0.00530519
-0.001 0.013557 0.00325
0.00771547 0.0114036 0.00462911
0.0065 0.012553 0.0025
0.00985591 0.00825571 0.00444671
0.008855 0.00975 0.002
0.00420212 -0.013161 0.0249795
0.003364 -0.0155 0.02375
-0.0131861 -0.00135092 0.0207569
-0.01375 -0.00525 0.021935
-0.0133247 -0.00186204 0.0204111
-0.014053 -0.00375 0.019
-0.0129856 0.000844331 0.0188563
-0.01425 -0.00175 0.017029
-0.013887 0.00289491 0.0159412
-0.0145 0.00025 0.015361
0.006055 -0.00999736 0.0145712
0.004 -0.01236 0.014
-0.0140245 0.00484571 0.0142443
-0.014561 0.00525 0.01225
-0.0127224 0.00950813 0.0125736
-0.0135 0.00887 0.0105
-0.0109506 0.01143 0.0107809
-0.012 0.010871 0.00875
-0.00870065 0.0129016 0.00855695
-0.0105 0.012055 0.007
0.0102815 -0.000697101 0.00669792
0.0095 -0.002321 0.005
-0.00311826 0.0134159 0.00593197
-0.00325 0.013557 0.0035
0.0102435 0.000854279 0.00483792
0.01 0.002245 0.00225
0.00375062 0.01294 0.00363615
0.002 0.01375 0.00188
0.0105156 0.0044075 0.0040055
0.009572 0.00475 0.00125
0.00639895 0.0124635 0.00276132
0.00475 0.013547 0.001
0.00364138 -0.0146885 0.0239003
0.00325 -0.015551 0.02175
0.00328567 -0.0153199 0.0219806
0.00275 -0.015564 0.01925
0.00452692 -0.0126592 0.0168731
0.003 -0.01466 0.017
0.0043076 -0.0119932 0.0144491
0.00275 -0.01375 0.014951
-0.0139661 0.00279347 0.0158116
-0.015 0.00175 0.013357
0.0060165 -0.0101742 0.0143275
0.0045 -0.011308 0.01175
-0.0144178 0.00528084 0.0125085
-0.014573 0.00625 0.01025
0.0064426 -0.00900317 0.0112403
0.00525 -0.01005 0.00875
0.00793934 -0.00681578 0.00949225
0.00675 -0.008028 0.00725
0.00758253 -0.00717945 0.00881957
0.008 -0.005852 0.006
-0.00644816 0.0135365 0.0062966
-0.009 0.01305 0.005
0.00951053 -0.00215261 0.00528344
0.008068 -0.00425 0.00375
-0.00639941 0.0135449 0.00558499
-0.006 0.013557 0.00275
0.0100129 0.00114517 0.00367187
0.009066 0.00025 0.0015
0.00981951 0.0077295 0.00317707
0.009071 0.00725 0.00075
0.00881578 0.00960137 0.00209721
0.007857 0.0105 0.00025
0.00793261 0.0105024 0.000678747
0.006548 0.01225 -0.00025
-0.0137082 -0.00515422 0.0217405
-0.014084 -0.00825 0.02225
-0.0135778 -0.00397647 0.0211176
-0.014082 -0.00625 0.01975
-0.0140151 -0.00370585 0.0190444
-0.01475 -0.00575 0.017546
-0.0141686 -0.00168736 0.0171794
-0.015043 -0.00375 0.016
-0.0145009 -0.00247116 0.0167313
-0.015071 -0.00225 0.01425
0.00371571 -0.0126608 0.0146398
0.002 -0.013412 0.01275
-0.0147322 0.00217174 0.0137248
-0.015081 0.00275 0.01125
0.00458396 -0.0111935 0.0118086
0.0035 -0.011871 0.00975
-0.0133491 0.00881165 0.0107694
-0.014072 0.00775 0.0085
-0.0118917 0.0108368 0.00908834
-0.01325 0.009549 0.00725
-0.0103442 0.0120468 0.00714822
-0.012 0.011058 0.00575
0.00767889 -0.00644233 0.00677055
0.00675 -0.00675 0.004455
-0.00618373 0.0135514 0.0040541
-0.008 0.013364 0.00275
0.00935008 0.000518552 0.00215156
0.0085 -0.00225 0.001742
-0.000531266 0.0135121 0.0034549
-0.001 0.014056 0.00075
0.0092194 0.000395018 0.00185184
0.009 0.002 -4.2e-05
0.00471766 0.0133428 0.00114362
0.00275 0.014056 -0.0005
0.00787968 0.0105007 0.000378624
0.008188 0.0085 -0.001
0.00344721 -0.0152565 0.0237951
0.0015 -0.017891 0.0255
0.0032607 -0.0154817 0.0218192
0.001558 -0.018 0.02225
0.00274989 -0.0162372 0.0219484
0.0015 -0.017373 0.02
0.00268463 -0.0156331 0.0197773
0.00125 -0.016528 0.01775
0.00283574 -0.0136743 0.0149788
0.0015 -0.01531 0.01575
0.00232816 -0.0142959 0.0152719
0.0005 -0.015017 0.014
-0.0149197 0.00187652 0.0134673
-0.015525 -0.0005 0.01275
0.00226903 -0.0132122 0.0128647
0.001 -0.013557 0.011
-0.0149635 0.00291496 0.0115519
-0.01506 0.004 0.0095
-0.0145958 0.00591833 0.0105798
-0.015035 0.00575 0.00825
0.00515591 -0.010051 0.00912689
0.003551 -0.01125 0.00725
0.00676478 -0.00800497 0.00752146
0.00525 -0.0095 0.006162
0.00582562 -0.00893189 0.0066786
0.0055 -0.008562 0.0045
-0.00867341 0.0129318 0.00499491
-0.01075 0.012072 0.0035
0.00816057 -0.00394171 0.0038207
0.00675 -0.005546 0.00225
-0.00588931 0.013555 0.00296143
-0.00475 0.013557 0.001
0.00911202 0.000293505 0.00160555
0.008057 -0.00075 -0.00025
0.00967517 0.0045004 0.00150176
0.008862 0.00425 -0.001
0.00662764 0.0119139 -0.000302801
0.00525 0.013047 -0.0015
0.00916098 0.00463767 -2.99432e-05
0.0085 0.00625 -0.001755
0.0078638 0.0105002 0.000288587
0.006858 0.0105 -0.00225
-0.0141502 -0.00795935 0.0222768
-0.01475 -0.01075 0.022928
-0.0141039 -0.00816281 0.022258
-0.014689 -0.01 0.0205
-0.0141777 -0.00608247 0.019916
-0.015 -0.00825 0.01878
0.00118772 -0.0164438 0.0181887
-0.000612 -0.01725 0.017
-0.014738 -0.00544587 0.0175226
-0.015547 -0.007 0.01575
-0.0149684 -0.00361471 0.0159524
-0.015556 -0.00525 0.01425
0.000537891 -0.0148515 0.014057
-0.001454 -0.01525 0.01275
-0.0153797 -0.00475941 0.0147607
-0.015556 -0.00375 0.01175
-0.0155084 -0.00374254 0.0123879
-0.015556 -0.00175 0.0105
-0.0150457 0.00279949 0.0113406
-0.015556 0.00075 0.0095
0.00351267 -0.0118538 0.0101308
0.0015 -0.013055 0.0085
-0.0150879 0.00335843 0.0101023
-0.015556 0.00275 0.0075
LINES 399 1197
2 2 1
2 6 2
2 12 3
2 2 4
2 10 5
2 14 6
2 6 7
2 4 8
2 8 9
2 8 10
2 22 11
2 4 12
2 26 13
2 28 14
2 24 15
2 12 16
2 48 17
2 10 18
2 18 19
2 16 20
2 38 21
2 18 22
2 40 23
2 14 24
2 24 25
2 20 26
2 26 27
2 0 28
2 42 29
2 20 30
2 54 31
2 16 32
2 56 33
2 22 34
2 52 35
2 28 36
2 44 37
2 30 38
2 70 39
2 34 40
2 72 41
2 36 42
2 64 43
2 36 44
2 66 45
2 32 46
2 82 47
2 32 48
2 58 49
2 34 50
2 90 51
2 50 52
2 94 53
2 30 54
2 96 55
2 46 56
2 98 57
2 48 58
2 60 59
2 58 60
2 88 61
2 42 62
2 76 63
2 62 64
2 92 65
2 44 66
2 110 67
2 54 68
2 114 69
2 38 70
2 100 71
2 40 72
2 118 73
2 72 74
2 74 75
2 62 76
2 106 77
2 52 78
2 108 79
2 56 80
2 80 81
2 46 82
2 116 83
2 82 84
2 84 85
2 60 86
2 102 87
2 86 88
2 122 89
2 50 90
2 142 91
2 64 92
2 126 93
2 78 94
2 94 95
2 68 96
2 132 97
2 80 98
2 150 99
2 70 100
2 154 101
2 86 102
2 120 103
2 90 104
2 138 105
2 76 106
2 106 107
2 78 108
2 166 109
2 66 110
2 148 111
2 98 112
2 112 113
2 68 114
2 114 115
2 84 116
2 174 117
2 74 118
2 178 119
2 102 120
2 182 121
2 88 122
2 160 123
2 122 124
2 124 125
2 92 126
2 146 127
2 108 128
2 168 129
2 128 130
2 130 131
2 96 132
2 194 133
2 100 134
2 176 135
2 134 136
2 200 137
2 104 138
2 158 139
2 124 140
2 140 141
2 104 142
2 184 143
2 126 144
2 188 145
2 144 146
2 190 147
2 110 148
2 192 149
2 112 150
2 196 151
2 134 152
2 152 153
2 152 154
2 202 155
2 120 156
2 180 157
2 138 158
2 206 159
2 140 160
2 210 161
2 160 162
2 162 163
2 142 164
2 216 165
2 128 166
2 218 167
2 130 168
2 220 169
2 148 170
2 222 171
2 132 172
2 198 173
2 116 174
2 226 175
2 136 176
2 228 177
2 118 178
2 232 179
2 156 180
2 236 181
2 156 182
2 238 183
2 164 184
2 208 185
2 164 186
2 274 187
2 144 188
2 246 189
2 146 190
2 248 191
2 170 192
2 250 193
2 172 194
2 252 195
2 150 196
2 254 197
2 172 198
2 260 199
2 136 200
2 258 201
2 154 202
2 292 203
2 178 204
2 204 205
2 158 206
2 206 207
2 184 208
2 268 209
2 162 210
2 272 211
2 210 212
2 244 213
2 188 214
2 214 215
2 186 216
2 278 217
2 166 218
2 280 219
2 168 220
2 220 221
2 170 222
2 288 223
2 194 224
2 256 225
2 174 226
2 326 227
2 176 228
2 262 229
2 202 230
2 294 231
2 204 232
2 334 233
2 180 234
2 298 235
2 234 236
2 302 237
2 182 238
2 304 239
2 212 240
2 240 241
2 186 242
2 270 243
2 212 244
2 276 245
2 214 246
2 314 247
2 190 248
2 316 249
2 192 250
2 318 251
2 224 252
2 286 253
2 196 254
2 254 255
2 224 256
2 290 257
2 200 258
2 258 259
2 198 260
2 368 261
2 228 262
2 330 263
2 232 264
2 336 265
2 264 266
2 340 267
2 208 268
2 268 269
2 242 270
2 342 271
2 240 272
2 346 273
2 242 274
2 312 275
2 244 276
2 352 277
2 216 278
2 354 279
2 218 280
2 356 281
2 280 282
2 320 283
2 222 284
2 360 285
2 252 286
2 362 287
2 284 288
2 364 289
2 256 290
2 366 291
2 230 292
2 292 293
2 230 294
2 374 295
2 294 296
2 370 297
2 300 298
2 378 299
2 234 300
2 380 301
2 236 302
2 384 303
2 238 304
2 386 305
2 304 306
2 306 307
2 270 308
2 348 309
2 272 310
2 394 311
2 274 312
2 396 313
2 246 314
2 314 315
2 248 316
2 316 317
2 250 318
2 318 319
2 282 320
2 320 321
2 288 322
2 322 323
2 290 324
2 324 325
2 226 326
2 326 327
2 324 328
2 328 329
2 262 330
2 330 331
2 296 332
2 332 333
2 264 334
2 334 335
2 266 336
2 338 337
2 336 338
2 338 339
2 266 340
2 382 341
2 308 342
2 344 343
2 342 344
2 388 345
2 310 346
2 346 347
2 308 348
2 348 349
2 310 350
2 398 351
2 276 352
2 352 353
2 278 354
2 354 355
2 282 356
2 358 357
2 356 358
2 358 359
2 284 360
2 360 361
2 286 362
2 362 363
2 322 364
2 364 365
2 328 366
2 366 367
2 260 368
2 372 369
2 296 370
2 370 371
2 368 372
2 372 373
2 332 374
2 374 375
2 298 376
2 376 377
2 376 378
2 378 379
2 300 380
2 380 381
2 340 382
2 382 383
2 302 384
2 384 385
2 306 386
2 390 387
2 344 388
2 388 389
2 386 390
2 392 391
2 390 392
2 392 393
2 350 394
2 394 395
2 312 396
2 396 397
2 350 398
2 398 399
CELL_DATA 399
SCALARS radius float
LOOKUP_TABLE default
0.138351
1.05294
0.076605
1.05214
0.0858768
1.05373
0.137988
0.733331
0.142815
0.731521
0.0831919
0.916707
0.067142
1.05563
0.0886094
0.916529
0.0826265
0.731126
0.152608
0.664594
0.0806835
0.728903
0.0806949
0.18516
0.178132
0.16122
0.157241
1.10291
0.0663699
0.661416
0.126148
0.780992
0.0748899
0.728542
0.0620493
0.548761
0.106335
0.522269
0.0923763
0.474868
0.12997
0.433543
0.0753524
0.437542
0.144419
0.443262
0.128449
0.73016
0.15636
0.653908
0.0862817
0.472171
0.0949253
0.527637
0.0782715
0.352043
0.0732986
0.729807
0.153052
0.727406
0.0840451
0.433024
0.116512
0.408968
0.103456
0.435439
0.0697779
0.525223
0.130356
0.521626
0.101245
0.47409
0.11075
0.470811
0.167521
0.233887
0.130325
0.471814
0.0816837
0.35091
0.175736
0.351592
0.0941633
0.345781
0.179134
0.725141
0.118717
0.546096
0.122573
0.55864
0.0895908
0.408113
0.0978864
0.198516
0.191
0.510652
0.107649
0.335556
0.102939
0.520658
0.0702969
0.602253
0.120999
0.557953
0.11839
0.223822
0.208002
0.459796
0.0963603
0.430078
0.0757151
0.334386
0.195861
0.227191
0.211877
0.32895
0.11078
0.463633
0.105218
0.600712
0.0993223
0.545432
0.0842041
0.543361
0.183396
0.405885
0.086248
0.458935
0.0969679
0.311582
0.207916
0.510039
0.0911289
0.519379
0.091737
0.394434
0.143873
0.293896
0.185028
0.536305
0.18538
0.529328
0.0940857
0.403978
0.14657
0.310561
0.137749
0.429465
0.084422
0.310293
0.129715
0.428612
0.17804
0.418117
0.133659
0.599071
0.148857
0.287347
0.159096
0.528818
0.108018
0.528105
0.196732
0.528472
0.0920416
0.404963
0.12667
0.277033
0.167431
0.428679
0.134978
0.508435
0.109415
0.326358
0.143646
0.328463
0.12706
0.461517
0.124917
0.505083
0.106773
0.441652
0.142408
0.281196
0.13536
0.500477
0.0889831
0.330119
0.0933004
0.308327
0.119367
0.282146
0.123094
0.44728
0.120936
0.30647
0.207818
0.347468
0.134985
0.295977
0.141028
0.417454
0.132524
0.459687
0.199848
0.259086
0.23731
0.27764
0.140197
0.518843
0.0891619
0.517278
0.146641
0.320192
0.212184
0.31186
0.145501
0.403136
0.139187
0.273014
0.250165
0.383304
0.100023
0.446015
0.145167
0.322046
0.188189
0.32606
0.135154
0.412836
0.108454
0.446734
0.122933
0.500735
0.13066
0.339505
0.102752
0.439972
0.117249
0.455294
0.216095
0.456335
0.144154
0.353121
0.14968
0.285512
0.156244
0.298876
0.166003
0.279604
0.141423
0.320803
0.134973
0.298519
0.26025
0.381925
0.193364
0.284181
0.272097
0.343813
0.152914
0.319497
0.163771
0.443454
0.100448
0.415636
0.172671
0.266473
0.252852
0.404676
0.106318
0.438452
0.129158
0.306371
0.111484
0.344482
0.204597
0.309164
0.170566
0.398924
0.14104
0.393194
0.205595
0.377641
0.153196
0.314969
0.170803
0.322451
0.148793
0.374802
0.119068
0.232727
0.217418
0.386544
0.0856444
0.383677
0.177364
0.389263
0.12998
0.442118
0.160118
0.335947
0.18486
0.434941
0.127399
0.432082
0.235851
0.398484
0.162065
0.43722
0.125331
0.303849
0.168989
0.282151
0.26518
0.292389
0.273339
0.271414
0.257959
0.295312
0.257448
0.319211
0.225066
0.356796
0.242323
0.312223
0.287533
0.314785
0.240779
0.311223
0.295306
0.307639
0.237138
0.248815
0.238381
0.303282
0.232232
0.299564
0.24305
0.352784
0.206583
0.347068
0.208494
0.34371
0.157733
0.259736
0.248621
0.27793
0.258193
0.40424
0.232179
0.334792
0.307094
0.298025
0.278099
0.327214
0.223561
0.318235
0.276134
0.272925
0.255782
0.30648
0.287665
0.276441
0.261253
0.258297
0.249571
0.336733
0.230084
0.301346
0.279291
0.325875
0.282
0.250824
0.24745
0.384293
0.300265
0.309618
0.301786
0.301608
0.285746
0.338418
0.310522
0.332712
0.312485
0.40726
0.204169
0.315956
0.302268
0.403061
0.24277
0.384782
0.349418
0.290164
0.282151
0.298761
0.279527
0.346569
0.307621
