# vtk DataFile Version 3.0
Tree
ASCII
DATASET POLYDATA
POINTS 600 float
-0.004 0.02 0.0265
0.0065 0.01 0.026302
0.00461 0.0117065 0.0248517
0.00725 0.009063 0.02275
0.00669862 0.00931291 0.0233525
0.008403 0.00575 0.023
0.0022342 0.0148672 0.0235433
0.004365 0.0135 0.02175
0.00789789 0.00692702 0.0228084
0.009056 0.00525 0.02075
0.00808356 0.00591314 0.0229219
0.00825 0.001955 0.02325
0.00708459 0.00913797 0.0229307
0.00752 0.0095 0.0185
-0.00017632 0.0167854 0.0237773
0.00075 0.015852 0.021
0.00738938 0.00939139 0.0198292
0.004546 0.01225 0.0175
0.00818675 0.00345909 0.0231253
0.009057 0.0015 0.0205
0.00748081 0.00946742 0.0188988
0.009558 0.00625 0.01675
0.00819606 0.00218806 0.0230914
0.008059 -0.001 0.0225
0.000555312 0.0157768 0.0211309
0.001378 0.01425 0.0175
0.00750824 0.00949023 0.0186196
0.00755 0.00925 0.015
-0.00193521 0.0182641 0.0250298
-0.00275 0.017053 0.02075
0.00909404 0.00658796 0.0173302
0.01025 0.002459 0.01675
0.00509727 0.0114695 0.0177089
0.003 0.012188 0.0145
0.00822634 -0.000329821 0.0222076
0.0085 -0.00225 0.02078
-0.00241927 0.0170057 0.0211194
-0.0025 0.0155 0.017178
0.00941881 0.00635139 0.0169241
0.009373 0.007 0.01375
0.0081092 -0.000798946 0.0224123
0.007057 -0.00475 0.02525
-0.00265078 0.0170388 0.0208608
-0.005 0.01675 0.019451
-0.0022332 0.0156832 0.0179372
-0.00075 0.013905 0.015
0.00396474 0.0118575 0.0159761
0.00525 0.010572 0.0125
0.00471138 0.0120158 0.0175627
-0.007 0.017 0.024302
0.00834243 -0.0020939 0.0208784
0.00825 -0.003887 0.0195
0.00845273 -0.00220317 0.0208095
0.009557 -0.00175 0.0165
0.00990321 0.00369769 0.0169241
0.011056 0.00225 0.0135
0.00302266 0.0121236 0.0146316
0.00075 0.012554 0.01175
-0.00569561 0.0151326 0.0228649
-0.00975 0.015046 0.02425
-0.00756063 0.0150928 0.023502
-0.010077 0.01125 0.0225
-0.00459777 0.0167259 0.0200213
-0.008 0.015856 0.02
-0.00487933 0.0167428 0.0196221
-0.0065 0.0155 0.016962
-0.00178824 0.0151498 0.0170561
-0.004152 0.01425 0.014
0.0107102 0.00268431 0.0145272
0.011057 0.0045 0.01125
0.00923508 0.00716056 0.0140396
0.008815 0.0085 0.01025
0.00726927 -0.00406822 0.0242738
0.006544 -0.0075 0.02375
0.00705169 -0.00509775 0.0241167
0.0075 -0.00625 0.021256
-0.0072984 0.015796 0.0199007
-0.00955 0.01375 0.01925
0.00919053 -0.00215236 0.0175236
0.009069 -0.00375 0.0155
0.00116043 0.0124929 0.0127936
-0.002 0.013194 0.012
0.00486442 0.0109576 0.0135428
0.0035 0.011569 0.00975
0.00423679 0.0112389 0.0117981
0.0065 0.010687 0.009
-0.0099536 0.0115168 0.0230031
-0.012 0.0085 0.022815
-0.01004 0.01133 0.0226509
-0.011 0.01025 0.02028
0.00820496 -0.00376868 0.019711
0.00775 -0.0065 0.018349
-0.00637742 0.0156054 0.0175455
-0.00875 0.013856 0.016
0.00946712 -0.00192664 0.016567
0.01025 -0.001546 0.01325
0.0109345 0.00232769 0.0135567
0.01125 0.001471 0.01075
0.000796005 0.0125902 0.0118137
-0.000182 0.013 0.009
0.00910762 0.00830341 0.0104595
0.0095 0.008946 0.00775
-0.0114825 0.00883098 0.0227867
-0.01225 0.005046 0.02225
0.00776923 -0.00583286 0.0190219
0.00675 -0.008563 0.01975
-0.00911007 0.0139964 0.0192157
-0.01075 0.011564 0.01775
0.00907941 -0.00378657 0.0156357
0.009002 -0.00525 0.01425
-0.00417214 0.0142716 0.0141035
-0.00625 0.013556 0.01175
0.000111402 0.0128771 0.00984412
-0.003 0.01325 0.009347
0.0109904 0.00408606 0.0116448
0.01125 0.005045 0.00775
0.00352393 0.0116187 0.00995299
0.00225 0.012561 0.00725
0.00651729 -0.00711421 0.0240883
0.005084 -0.01075 0.02525
-0.0119554 0.00547432 0.0220717
-0.012075 0.00225 0.021
-0.010804 0.010173 0.0209366
-0.012 0.007 0.019043
-0.0114498 0.00845959 0.0199141
-0.012069 0.00875 0.017
-0.00841077 0.0139185 0.0161446
-0.01025 0.01208 0.01475
0.00903141 -0.00469389 0.0147765
0.009555 -0.004 0.012
0.00954593 -0.00390735 0.0124617
0.0105 -0.002 0.009943
0.0111379 0.00177637 0.0110878
0.011058 0.002 0.00775
0.00915897 0.00897365 0.00852333
0.008045 0.01075 0.0065
0.00804359 0.0103129 0.00713816
0.00525 0.012069 0.006
0.00688519 -0.00810432 0.0198684
0.00575 -0.010552 0.022
-0.0118774 0.00715218 0.0193769
-0.0125 0.004438 0.01925
0.00765635 -0.00643217 0.0185571
0.007 -0.008827 0.017
-0.00999841 0.0123314 0.0151615
-0.012 0.01033 0.015
-0.0101745 0.0121554 0.0148735
-0.00925 0.012565 0.0125
-0.00617131 0.0135878 0.0118248
-0.00775 0.013056 0.01
-0.000251885 0.0129458 0.0091855
-0.00175 0.013061 0.00725
0.00939769 0.0089543 0.007982
0.01057 0.007 0.00575
0.00946931 0.00894849 0.0078196
0.009841 0.00925 0.005
-0.0122225 0.00273557 0.0214294
-0.013359 -0.0005 0.022
0.00654464 -0.00883863 0.0205079
0.005555 -0.0115 0.01925
-0.0119632 0.00704565 0.0191432
-0.013 0.005574 0.017
-0.012689 0.0060155 0.0176429
-0.01325 0.00725 0.015046
0.0071969 -0.00810855 0.0174671
0.007029 -0.00875 0.0135
0.00901082 -0.00508317 0.014408
0.00825 -0.006549 0.0115
0.00955228 -0.00397221 0.0121385
0.00925 -0.004549 0.00925
-0.00689751 0.0133431 0.0109854
-0.00575 0.013557 0.00775
0.0110827 0.00234844 0.0082581
0.011055 0.0035 0.00575
0.00223766 0.0124818 0.00748496
0.00075 0.013355 0.005
0.00801897 0.0105971 0.00656152
0.007865 0.0115 0.00425
0.00514323 -0.0106474 0.0249712
0.004067 -0.0135 0.02525
-0.0130369 0.000163603 0.0216201
-0.01325 -0.002 0.020387
-0.0121192 0.00239567 0.0211288
-0.013082 0.00075 0.01825
0.00694117 -0.00871125 0.0171706
0.00575 -0.011028 0.01625
0.00695714 -0.00868418 0.0153071
0.006 -0.01025 0.014223
-0.0112443 0.0110813 0.0147195
-0.01275 0.009549 0.0125
-0.00952736 0.0124421 0.013212
-0.01105 0.01125 0.01075
-0.00765983 0.0131257 0.0100219
-0.00875 0.013 0.008256
0.0110654 0.00210453 0.00790243
0.01025 -0.001046 0.00675
-0.00178075 0.0131538 0.0075342
-0.004 0.013557 0.0055
0.0109233 0.0034815 0.00599259
0.010553 0.00475 0.00375
0.00579427 0.011735 0.0059573
0.00375 0.01307 0.0035
0.00973317 0.00889947 0.00570294
0.01 0.0075 0.002972
0.00473426 -0.0117314 0.0250771
0.0045 -0.013827 0.02225
0.0056745 -0.0110964 0.0196584
0.0045 -0.01375 0.019741
0.00589662 -0.0106588 0.0166036
0.0045 -0.012859 0.017
-0.0129067 0.00570645 0.0171929
-0.014 0.00275 0.015756
-0.0133221 0.004583 0.0166469
-0.014189 0.0045 0.014
-0.0125252 0.00964085 0.0130993
-0.014048 0.00725 0.0125
0.00693554 -0.00874917 0.0136029
0.0065 -0.008871 0.01075
0.00842346 -0.00615833 0.0117305
0.008 -0.006829 0.009
0.00936662 -0.00425229 0.0097149
0.0095 -0.003542 0.007
-0.0063272 0.0134886 0.00815533
-0.0065 0.013557 0.0055
0.0107556 0.000907329 0.00746451
0.010067 0.0005 0.00425
0.000736051 0.0131321 0.00530519
-0.001 0.013557 0.00325
0.00771547 0.0114036 0.00462911
0.0065 0.012553 0.0025
0.00985591 0.00825571 0.00444671
0.008855 0.00975 0.002
0.00420212 -0.013161 0.0249795
0.003364 -0.0155 0.02375
-0.0131861 -0.00135092 0.0207569
-0.01375 -0.00525 0.021935
-0.0133247 -0.00186204 0.0204111
-0.014053 -0.00375 0.019
-0.0129856 0.000844331 0.0188563
-0.01425 -0.00175 0.017029
-0.013887 0.00289491 0.0159412
-0.0145 0.00025 0.015361
0.006055 -0.00999736 0.0145712
0.004 -0.01236 0.014
-0.0140245 0.00484571 0.0142443
-0.014561 0.00525 0.01225
-0.0127224 0.00950813 0.0125736
-0.0135 0.00887 0.0105
-0.0109506 0.01143 0.0107809
-0.012 0.010871 0.00875
-0.00870065 0.0129016 0.00855695
-0.0105 0.012055 0.007
0.0102815 -0.000697101 0.00669792
0.0095 -0.002321 0.005
-0.00311826 0.0134159 0.00593197
-0.00325 0.013557 0.0035
0.0102435 0.000854279 0.00483792
0.01 0.002245 0.00225
0.00375062 0.01294 0.00363615
0.002 0.01375 0.00188
0.0105156 0.0044075 0.0040055
0.009572 0.00475 0.00125
0.00639895 0.0124635 0.00276132
0.00475 0.013547 0.001
0.00364138 -0.0146885 0.0239003
0.00325 -0.015551 0.02175
0.00328567 -0.0153199 0.0219806
0.00275 -0.015564 0.01925
0.00452692 -0.0126592 0.0168731
0.003 -0.01466 0.017
0.0043076 -0.0119932 0.0144491
0.00275 -0.01375 0.014951
-0.0139661 0.00279347 0.0158116
-0.015 0.00175 0.013357
0.0060165 -0.0101742 0.0143275
0.0045 -0.011308 0.01175
-0.0144178 0.00528084 0.0125085
-0.014573 0.00625 0.01025
0.0064426 -0.00900317 0.0112403
0.00525 -0.01005 0.00875
0.00793934 -0.00681578 0.00949225
0.00675 -0.008028 0.00725
0.00758253 -0.00717945 0.00881957
0.008 -0.005852 0.006
-0.00644816 0.0135365 0.0062966
-0.009 0.01305 0.005
0.00951053 -0.00215261 0.00528344
0.008068 -0.00425 0.00375
-0.00639941 0.0135449 0.00558499
-0.006 0.013557 0.00275
0.0100129 0.00114517 0.00367187
0.009066 0.00025 0.0015
0.00981951 0.0077295 0.00317707
0.009071 0.00725 0.00075
0.00881578 0.00960137 0.00209721
0.007857 0.0105 0.00025
0.00793261 0.0105024 0.000678747
0.006548 0.01225 -0.00025
-0.0137082 -0.00515422 0.0217405
-0.014084 -0.00825 0.02225
-0.0135778 -0.00397647 0.0211176
-0.014082 -0.00625 0.01975
-0.0140151 -0.00370585 0.0190444
-0.01475 -0.00575 0.017546
-0.0141686 -0.00168736 0.0171794
-0.015043 -0.00375 0.016
-0.0145009 -0.00247116 0.0167313
-0.015071 -0.00225 0.01425
0.00371571 -0.0126608 0.0146398
0.002 -0.013412 0.01275
-0.0147322 0.00217174 0.0137248
-0.015081 0.00275 0.01125
0.00458396 -0.0111935 0.0118086
0.0035 -0.011871 0.00975
-0.0133491 0.00881165 0.0107694
-0.014072 0.00775 0.0085
-0.0118917 0.0108368 0.00908834
-0.01325 0.009549 0.00725
-0.0103442 0.0120468 0.00714822
-0.012 0.011058 0.00575
0.00767889 -0.00644233 0.00677055
0.00675 -0.00675 0.004455
-0.00618373 0.0135514 0.0040541
-0.008 0.013364 0.00275
0.00935008 0.000518552 0.00215156
0.0085 -0.00225 0.001742
-0.000531266 0.0135121 0.0034549
-0.001 0.014056 0.00075
0.0092194 0.000395018 0.00185184
0.009 0.002 -4.2e-05
0.00471766 0.0133428 0.00114362
0.00275 0.014056 -0.0005
0.00787968 0.0105007 0.000378624
0.008188 0.0085 -0.001
0.00344721 -0.0152565 0.0237951
0.0015 -0.017891 0.0255
0.0032607 -0.0154817 0.0218192
0.001558 -0.018 0.02225
0.00274989 -0.0162372 0.0219484
0.0015 -0.017373 0.02
0.00268463 -0.0156331 0.0197773
0.00125 -0.016528 0.01775
0.00283574 -0.0136743 0.0149788
0.0015 -0.01531 0.01575
0.00232816 -0.0142959 0.0152719
0.0005 -0.015017 0.014
-0.0149197 0.00187652 0.0134673
-0.015525 -0.0005 0.01275
0.00226903 -0.0132122 0.0128647
0.001 -0.013557 0.011
-0.0149635 0.00291496 0.0115519
-0.01506 0.004 0.0095
-0.0145958 0.00591833 0.0105798
-0.015035 0.00575 0.00825
0.00515591 -0.010051 0.00912689
0.003551 -0.01125 0.00725
0.00676478 -0.00800497 0.00752146
0.00525 -0.0095 0.006162
0.00582562 -0.00893189 0.0066786
0.0055 -0.008562 0.0045
-0.00867341 0.0129318 0.00499491
-0.01075 0.012072 0.0035
0.00816057 -0.00394171 0.0038207
0.00675 -0.005546 0.00225
-0.00588931 0.013555 0.00296143
-0.00475 0.013557 0.001
0.00911202 0.000293505 0.00160555
0.008057 -0.00075 -0.00025
0.00967517 0.0045004 0.00150176
0.008862 0.00425 -0.001
0.00662764 0.0119139 -0.000302801
0.00525 0.013047 -0.0015
0.00916098 0.00463767 -2.99432e-05
0.0085 0.00625 -0.001755
0.0078638 0.0105002 0.000288587
0.006858 0.0105 -0.00225
-0.0141502 -0.00795935 0.0222768
-0.01475 -0.01075 0.022928
-0.0141039 -0.00816281 0.022258
-0.014689 -0.01 0.0205
-0.0141777 -0.00608247 0.019916
-0.015 -0.00825 0.01878
0.00118772 -0.0164438 0.0181887
-0.000612 -0.01725 0.017
-0.014738 -0.00544587 0.0175226
-0.015547 -0.007 0.01575
-0.0149684 -0.00361471 0.0159524
-0.015556 -0.00525 0.01425
0.000537891 -0.0148515 0.014057
-0.001454 -0.01525 0.01275
-0.0153797 -0.00475941 0.0147607
-0.015556 -0.00375 0.01175
-0.0155084 -0.00374254 0.0123879
-0.015556 -0.00175 0.0105
-0.0150457 0.00279949 0.0113406
-0.015556 0.00075 0.0095
0.00351267 -0.0118538 0.0101308
0.0015 -0.013055 0.0085
-0.0150879 0.00335843 0.0101023
-0.015556 0.00275 0.0075
-0.0130953 0.00954111 0.00755827
-0.01425 0.008049 0.00625
0.00524147 -0.0094476 0.00618013
0.00375 -0.010546 0.005
-0.0118901 0.0110082 0.00577995
-0.0135 0.00975 0.004259
0.0056042 -0.00845916 0.00470715
0.0055 -0.007772 0.00275
-0.00783879 0.013284 0.00281731
-0.0095 0.012864 0.0015
0.00852764 -0.00171249 0.0016787
0.007058 -0.00375 0.0005
-0.00596679 0.0135564 0.00281343
-0.00725 0.013523 -0
-0.00481261 0.0136258 0.00128459
-0.003 0.014052 -0.00075
-0.000768442 0.0139363 0.00116938
-0.00025 0.01425 -0.001471
0.00837351 -0.000436948 0.000306666
0.007862 0.001 -0.002
0.00528792 0.0129513 -0.0013969
0.003811 0.014 -0.0025
0.00844719 0.00608406 -0.00155158
0.007556 0.0075 -0.003
0.00579701 0.0125571 -0.00098114
0.0055 0.011898 -0.00325
0.00163311 -0.0176525 0.0249544
-0.00025 -0.02005 0.0255
0.00159852 -0.0177849 0.0222411
0 -0.01975 0.022649
0.00157015 -0.0179355 0.0222473
0 -0.019018 0.0205
0.000283942 -0.0186615 0.0207268
-0.001 -0.018559 0.01875
-0.0148839 -0.00790639 0.0187151
-0.015525 -0.0095 0.01725
-0.000564729 -0.017062 0.0170861
-0.0025 -0.0175 0.015949
-0.00192766 -0.0172141 0.0161091
-0.00325 -0.016553 0.01425
-0.0154661 -0.0052098 0.0143005
-0.015556 -0.00675 0.01275
-0.000697081 -0.0150986 0.0132467
-0.00075 -0.014532 0.011
-0.000523066 -0.0145797 0.0112289
0 -0.014055 0.00925
-0.0153927 0.000845836 0.00973898
-0.015556 -0.00125 0.00825
-0.0153922 0.00268295 0.00834081
-0.015556 0.00075 0.007
0.00363029 -0.0111752 0.00750061
0.002 -0.012353 0.006
-0.0155069 0.00272989 0.00775224
-0.01525 0.004549 0.0055
-0.0151922 0.00452772 0.00594072
-0.01475 0.006552 0.0045
0.00553126 -0.00853115 0.00456215
0.004 -0.0095 0.0033
-0.0105755 0.0120109 0.00369837
-0.0125 0.010871 0.0025
-0.00929647 0.0128605 0.00182067
-0.01125 0.012029 0.00125
0.00678138 -0.00531375 0.00226262
0.00525 -0.00655 0.0005
0.00773403 -0.00281275 0.0010422
0.007 -0.002549 -0.001
-0.00476878 0.0135776 0.00108538
-0.0055 0.013557 -0.0015
0.00805123 -9.27995e-05 -0.000709067
0.007058 -0.00075 -0.0025
0.00884356 0.0042767 -0.000862876
0.007812 0.00325 -0.003
0.00392123 0.0137947 -0.00230716
0.00175 0.014556 -0.00325
0.00812147 0.00355801 -0.00235886
0.0075 0.00475 -0.003827
0.00756454 0.0073969 -0.00288651
0.006568 0.00875 -0.00425
-0.0145581 -0.010627 0.0228588
-0.01475 -0.0135 0.023425
8.51826e-05 -0.018911 0.020568
-0.0015 -0.020358 0.02125
-0.0145357 -0.00974198 0.0211153
-0.015057 -0.01275 0.0205
-0.0147338 -0.010885 0.0208815
-0.015073 -0.0115 0.01875
-0.00192766 -0.0172141 0.0161091
-0.00325 -0.019009 0.01775
-0.00232436 -0.0177526 0.0166014
-0.0045 -0.018067 0.01625
-0.0153562 -0.00913973 0.0173306
-0.015556 -0.01 0.015
-0.00317297 -0.0167342 0.014682
-0.00525 -0.016572 0.01375
-0.00141496 -0.0152297 0.0128936
-0.0035 -0.01557 0.01225
-0.015481 -0.00643915 0.0129236
-0.015194 -0.0075 0.011
-0.00068192 -0.0145463 0.0110687
-0.00275 -0.015057 0.01
-0.0155417 -0.00374776 0.0119414
-0.015556 -0.00525 0.00925
-0.00015692 -0.0142124 0.00984368
-0.00175 -0.014572 0.008
0.00179405 -0.0128061 0.00853186
0.00025 -0.013539 0.00675
-0.0154937 0.00148452 0.00750951
-0.015556 0.00175 0.0055
0.00380727 -0.0104698 0.00516764
0.00225 -0.011529 0.00425
-0.0147161 0.00648533 0.00449577
-0.01425 0.008049 0.00325
0.00408876 -0.00939997 0.00340989
0.002567 -0.01025 0.00225
0.00533481 -0.0081694 0.00338857
0.004 -0.0085 0.0013
-0.00943894 0.0128629 0.0015962
-0.00925 0.013028 -0.00025
0.00711149 -0.00356196 0.000473331
0.00575 -0.00475 -0.001046
-0.00701203 0.0134011 0.000115223
-0.0075 0.013059 -0.002
0.00702319 -0.00271835 -0.000665045
0.00575 -0.00325 -0.002546
-0.000641455 0.0141167 -0.000795926
-0.00175 0.014082 -0.00325
0.00735597 -0.00055284 -0.00196272
0.007 0.00075 -0.003758
0.00781347 0.00327744 -0.00293431
0.006872 0.0025 -0.0045
0.00541429 0.0121602 -0.00284741
0.004315 0.0125 -0.00475
0.00309616 0.014084 -0.00266544
0.00275 0.013849 -0.005
0.00658785 0.00868073 -0.00416368
0.0055 0.010049 -0.0055
-0.000277405 -0.0197073 0.0252554
-0.0025 -0.021566 0.02525
-0.014725 -0.0125994 0.0230273
-0.015051 -0.01425 0.022
-0.00119019 -0.0199064 0.0208999
-0.00325 -0.02075 0.020454
-0.00330379 -0.0188508 0.0175924
-0.0045 -0.01988 0.0185
-0.00408758 -0.0181127 0.0164636
-0.00575 -0.019 0.017098
-0.0154321 -0.00946663 0.016445
-0.015355 -0.01225 0.016
-0.00437627 -0.0180807 0.0163141
-0.0065 -0.017572 0.01525
-0.00610041 -0.0175388 0.0152405
-0.0075 -0.016872 0.014
-0.0154507 -0.00996099 0.0151101
-0.015043 -0.01075 0.013
-0.0047942 -0.0165434 0.0137566
-0.006 -0.016055 0.012
-0.0151212 -0.0103338 0.0134935
-0.014582 -0.00975 0.01125
-0.00247162 -0.014989 0.0103235
-0.00475 -0.015556 0.01025
-0.0152525 -0.00714357 0.0112744
-0.015058 -0.007 0.00925
-0.00266649 -0.0150366 0.0100971
-0.003937 -0.01525 0.00825
-0.015551 -0.00454922 0.00994698
-0.015556 -0.004 0.0075
-0.0155547 -0.00390329 0.00802068
-0.015556 -0.00225 0.0065
0.0002963 -0.0133829 0.00677929
-0.001 -0.013813 0.00525
-0.0155556 -0.00228905 0.00649662
-0.015556 -0.0005 0.00475
0.00225833 -0.0114779 0.00440365
0.0005 -0.012557 0.00375
-0.0155311 0.00178381 0.0056738
-0.015556 0.00225 0.00325
-0.0150494 0.00511501 0.00550723
-0.0155 0.004859 0.00275
-0.0143292 0.00788491 0.00323117
-0.014 0.00925 0.001759
-0.0120154 0.0111338 0.00257856
-0.01275 0.01055 0.00075
0.00404035 -0.00850858 0.00136726
0.003 -0.008814 -0.00025
0.00529161 -0.00635341 0.000522171
0.004 -0.007171 -0.001
-0.00930668 0.0129785 0.000303861
-0.01125 0.012029 -0.00125
0.00459414 -0.00679491 -0.000299801
0.0045 -0.005799 -0.00225
-0.00512601 0.0135644 -0.00116268
-0.005 0.01356 -0.00325
0.00706184 -0.000761308 -0.00243599
0.006 -0.001549 -0.004
-0.00181527 0.0140861 -0.0028147
-0.00325 0.014057 -0.0045
0.00204616 0.0143908 -0.0032904
0.0005 0.014556 -0.005
0.0075355 0.00449816 -0.00366482
0.006555 0.00525 -0.0055
LINES 599 1797
2 2 1
2 6 2
2 12 3
2 2 4
2 10 5
2 14 6
2 6 7
2 4 8
2 8 9
2 8 10
2 22 11
2 4 12
2 26 13
2 28 14
2 24 15
2 12 16
2 48 17
2 10 18
2 18 19
2 16 20
2 38 21
2 18 22
2 40 23
2 14 24
2 24 25
2 20 26
2 26 27
2 0 28
2 42 29
2 20 30
2 54 31
2 16 32
2 56 33
2 22 34
2 52 35
2 28 36
2 44 37
2 30 38
2 70 39
2 34 40
2 72 41
2 36 42
2 64 43
2 36 44
2 66 45
2 32 46
2 82 47
2 32 48
2 58 49
2 34 50
2 90 51
2 50 52
2 94 53
2 30 54
2 96 55
2 46 56
2 98 57
2 48 58
2 60 59
2 58 60
2 88 61
2 42 62
2 76 63
2 62 64
2 92 65
2 44 66
2 110 67
2 54 68
2 114 69
2 38 70
2 100 71
2 40 72
2 118 73
2 72 74
2 74 75
2 62 76
2 106 77
2 52 78
2 108 79
2 56 80
2 80 81
2 46 82
2 116 83
2 82 84
2 84 85
2 60 86
2 102 87
2 86 88
2 122 89
2 50 90
2 142 91
2 64 92
2 126 93
2 78 94
2 94 95
2 68 96
2 132 97
2 80 98
2 150 99
2 70 100
2 154 101
2 86 102
2 120 103
2 90 104
2 138 105
2 76 106
2 106 107
2 78 108
2 166 109
2 66 110
2 148 111
2 98 112
2 112 113
2 68 114
2 114 115
2 84 116
2 174 117
2 74 118
2 178 119
2 102 120
2 182 121
2 88 122
2 160 123
2 122 124
2 124 125
2 92 126
2 146 127
2 108 128
2 168 129
2 128 130
2 130 131
2 96 132
2 194 133
2 100 134
2 176 135
2 134 136
2 200 137
2 104 138
2 158 139
2 124 140
2 140 141
2 104 142
2 184 143
2 126 144
2 188 145
2 144 146
2 190 147
2 110 148
2 192 149
2 112 150
2 196 151
2 134 152
2 152 153
2 152 154
2 202 155
2 120 156
2 180 157
2 138 158
2 206 159
2 140 160
2 210 161
2 160 162
2 162 163
2 142 164
2 216 165
2 128 166
2 218 167
2 130 168
2 220 169
2 148 170
2 222 171
2 132 172
2 198 173
2 116 174
2 226 175
2 136 176
2 228 177
2 118 178
2 232 179
2 156 180
2 236 181
2 156 182
2 238 183
2 164 184
2 208 185
2 164 186
2 274 187
2 144 188
2 246 189
2 146 190
2 248 191
2 170 192
2 250 193
2 172 194
2 252 195
2 150 196
2 254 197
2 172 198
2 260 199
2 136 200
2 258 201
2 154 202
2 292 203
2 178 204
2 204 205
2 158 206
2 206 207
2 184 208
2 268 209
2 162 210
2 272 211
2 210 212
2 244 213
2 188 214
2 214 215
2 186 216
2 278 217
2 166 218
2 280 219
2 168 220
2 220 221
2 170 222
2 288 223
2 194 224
2 256 225
2 174 226
2 326 227
2 176 228
2 262 229
2 202 230
2 294 231
2 204 232
2 334 233
2 180 234
2 298 235
2 234 236
2 302 237
2 182 238
2 304 239
2 212 240
2 240 241
2 186 242
2 270 243
2 212 244
2 276 245
2 214 246
2 314 247
2 190 248
2 316 249
2 192 250
2 318 251
2 224 252
2 286 253
2 196 254
2 254 255
2 224 256
2 290 257
2 200 258
2 258 259
2 198 260
2 368 261
2 228 262
2 330 263
2 232 264
2 336 265
2 264 266
2 340 267
2 208 268
2 268 269
2 242 270
2 342 271
2 240 272
2 346 273
2 242 274
2 312 275
2 244 276
2 352 277
2 216 278
2 354 279
2 218 280
2 356 281
2 280 282
2 320 283
2 222 284
2 360 285
2 252 286
2 362 287
2 284 288
2 412 289
2 256 290
2 366 291
2 230 292
2 292 293
2 230 294
2 374 295
2 294 296
2 370 297
2 300 298
2 378 299
2 234 300
2 380 301
2 236 302
2 384 303
2 238 304
2 386 305
2 304 306
2 306 307
2 270 308
2 348 309
2 272 310
2 394 311
2 274 312
2 396 313
2 246 314
2 314 315
2 248 316
2 400 317
2 250 318
2 404 319
2 282 320
2 320 321
2 288 322
2 408 323
2 290 324
2 410 325
2 226 326
2 416 327
2 324 328
2 328 329
2 262 330
2 330 331
2 296 332
2 332 333
2 264 334
2 426 335
2 266 336
2 430 337
2 336 338
2 338 339
2 266 340
2 382 341
2 308 342
2 344 343
2 342 344
2 388 345
2 310 346
2 346 347
2 308 348
2 348 349
2 310 350
2 398 351
2 276 352
2 352 353
2 278 354
2 450 355
2 282 356
2 402 357
2 356 358
2 456 359
2 284 360
2 458 361
2 286 362
2 462 363
2 322 364
2 466 365
2 328 366
2 418 367
2 260 368
2 470 369
2 296 370
2 420 371
2 368 372
2 422 373
2 332 374
2 374 375
2 298 376
2 478 377
2 376 378
2 482 379
2 300 380
2 434 381
2 340 382
2 436 383
2 302 384
2 384 385
2 306 386
2 440 387
2 344 388
2 494 389
2 386 390
2 500 391
2 390 392
2 392 393
2 350 394
2 446 395
2 312 396
2 504 397
2 350 398
2 452 399
2 316 400
2 400 401
2 358 402
2 508 403
2 318 404
2 404 405
2 358 406
2 514 407
2 322 408
2 516 409
2 324 410
2 518 411
2 364 412
2 520 413
2 364 414
2 414 415
2 326 416
2 524 417
2 366 418
2 468 419
2 424 420
2 472 421
2 372 422
2 476 423
2 370 424
2 530 425
2 334 426
2 536 427
2 338 428
2 428 429
2 428 430
2 480 431
2 430 432
2 432 433
2 380 434
2 490 435
2 382 436
2 486 437
2 436 438
2 492 439
2 390 440
2 496 441
2 388 442
2 498 443
2 442 444
2 502 445
2 394 446
2 446 447
2 398 448
2 506 449
2 354 450
2 450 451
2 448 452
2 454 453
2 452 454
2 510 455
2 406 456
2 512 457
2 360 458
2 580 459
2 408 460
2 460 461
2 362 462
2 584 463
2 410 464
2 522 465
2 414 466
2 590 467
2 418 468
2 592 469
2 372 470
2 528 471
2 420 472
2 596 473
2 470 474
2 598 475
2 422 476
2 534 477
2 376 478
2 538 479
2 432 480
2 540 481
2 378 482
2 484 483
2 482 484
2 484 485
2 438 486
2 542 487
2 486 488
2 548 489
2 434 490
2 552 491
2 438 492
2 554 493
2 442 494
2 494 495
2 440 496
2 560 497
2 444 498
2 562 499
2 392 500
2 564 501
2 444 502
2 502 503
2 396 504
2 568 505
2 448 506
2 574 507
2 402 508
2 572 509
2 576 510
2 578 511
2 456 512
2 512 513
2 406 514
2 582 515
2 460 516
2 586 517
2 464 518
2 518 519
2 412 520
2 520 521
2 464 522
2 522 523
2 416 524
2 594 525
2 468 526
2 526 527
2 474 528
2 528 529
2 424 530
2 530 531
2 472 532
2 532 533
2 476 534
2 534 535
2 426 536
2 536 537
2 478 538
2 538 539
2 480 540
2 540 541
2 488 542
2 542 543
2 488 544
2 544 545
2 490 546
2 546 547
2 544 548
2 550 549
2 548 550
2 550 551
2 546 552
2 556 553
2 492 554
2 554 555
2 552 556
2 556 557
2 498 558
2 558 559
2 496 560
2 560 561
2 558 562
2 562 563
2 500 564
2 566 565
2 564 566
2 570 567
2 504 568
2 568 569
2 566 570
2 570 571
2 508 572
2 572 573
2 506 574
2 574 575
2 454 576
2 576 577
2 510 578
2 578 579
2 458 580
2 580 581
2 514 582
2 582 583
2 462 584
2 588 585
2 516 586
2 586 587
2 584 588
2 588 589
2 466 590
2 590 591
2 526 592
2 592 593
2 524 594
2 594 595
2 532 596
2 596 597
2 474 598
2 598 599
CELL_DATA 599
SCALARS radius float
LOOKUP_TABLE default
0.124065
1.09829
0.0684869
1.09777
0.0763797
1.09882
0.124077
0.777669
0.127232
0.776532
0.0735087
0.948233
0.0597812
1.1001
0.0798227
0.948114
0.073362
0.776286
0.135165
0.694503
0.0713176
0.774918
0.0707453
0.166799
0.160468
0.143546
0.140003
1.1471
0.0594345
0.692453
0.110532
0.802748
0.0662231
0.774697
0.0542483
0.562547
0.0940373
0.508637
0.0812054
0.558535
0.111762
0.398236
0.0673491
0.486106
0.127118
0.426824
0.111789
0.760323
0.136739
0.66244
0.0750754
0.487235
0.0818829
0.585227
0.0675135
0.311302
0.064816
0.760096
0.133382
0.758618
0.0724765
0.397795
0.104184
0.377508
0.0922124
0.48493
0.0601439
0.58391
0.113014
0.508169
0.088204
0.558157
0.0933203
0.556659
0.143159
0.20914
0.116536
0.487011
0.0694988
0.3103
0.155398
0.362388
0.0788844
0.358807
0.153741
0.757241
0.10159
0.555604
0.104837
0.559375
0.077195
0.376792
0.0868984
0.171241
0.164757
0.576342
0.0916255
0.296723
0.0910261
0.507477
0.0605176
0.640452
0.102247
0.558924
0.102321
0.20014
0.185994
0.479849
0.080935
0.482001
0.0637783
0.295689
0.173195
0.196966
0.183689
0.34914
0.0885458
0.553485
0.0857364
0.639599
0.0825184
0.555192
0.0706722
0.553943
0.155425
0.374942
0.0759923
0.479362
0.0818586
0.263032
0.175519
0.576033
0.0758129
0.506587
0.0794129
0.341445
0.124545
0.254006
0.159914
0.549834
0.155846
0.54086
0.0803544
0.37338
0.129518
0.300849
0.119726
0.481688
0.069244
0.274384
0.114704
0.44847
0.153482
0.442396
0.113157
0.638727
0.12187
0.248346
0.137502
0.545629
0.0891355
0.545233
0.163079
0.540335
0.0764062
0.45136
0.103174
0.233866
0.141342
0.481315
0.10846
0.575259
0.0876851
0.347792
0.1069
0.284336
0.109991
0.552599
0.0985049
0.532512
0.086082
0.47853
0.115211
0.240157
0.115605
0.524034
0.0734477
0.291714
0.0824463
0.299224
0.0993387
0.263071
0.0978329
0.4952
0.09594
0.271003
0.183768
0.410021
0.103071
0.256215
0.122082
0.442018
0.11068
0.551911
0.160859
0.223921
0.2051
0.23712
0.119736
0.540326
0.0706625
0.539516
0.119753
0.282942
0.1875
0.291423
0.11729
0.450491
0.109406
0.230474
0.211185
0.453548
0.0756599
0.494607
0.114809
0.345869
0.125523
0.282256
0.116997
0.439532
0.086477
0.547318
0.0907735
0.530375
0.0986765
0.273713
0.0828401
0.47771
0.0906604
0.510524
0.171827
0.492084
0.115225
0.288372
0.122235
0.252297
0.138067
0.292693
0.129675
0.261462
0.10326
0.340459
0.100911
0.263972
0.230132
0.433626
0.1493
0.246004
0.235543
0.40868
0.106852
0.276575
0.14177
0.546252
0.0724481
0.522092
0.115203
0.227582
0.21595
0.446043
0.0794755
0.503952
0.0979294
0.312146
0.0858697
0.281317
0.167082
0.289662
0.128039
0.44868
0.101188
0.446501
0.159189
0.451471
0.106848
0.337901
0.1117
0.411695
0.072027
0.430927
0.0825958
0.194366
0.18158
0.426479
0.0651741
0.42529
0.115837
0.406148
0.0880777
0.504869
0.10614
0.270845
0.149036
0.475466
0.0933671
0.474365
0.179374
0.443465
0.127353
0.503489
0.0867342
0.310784
0.11904
0.249327
0.23433
0.288828
0.162114
0.256815
0.114206
0.228654
0.199337
0.410842
0.0964106
0.424868
0.129318
0.34243
0.138513
0.344513
0.172858
0.269413
0.255634
0.234108
0.180459
0.274505
0.131191
0.351333
0.0742695
0.350303
0.169178
0.462521
0.116862
0.425054
0.150925
0.424126
0.0969697
0.196935
0.188507
0.218401
0.202892
0.493238
0.149207
0.273404
0.250785
0.283104
0.148603
0.425544
0.076201
0.423629
0.0869935
0.281227
0.118334
0.334874
0.116294
0.342513
0.0858537
0.329349
0.138754
0.406483
0.093455
0.400192
0.101927
0.404007
0.117364
0.190873
0.188306
0.404197
0.13171
0.320582
0.165668
0.395129
0.126793
0.460126
0.103113
0.268237
0.251929
0.465657
0.0930087
0.417657
0.110631
0.464402
0.114098
0.412944
0.21747
0.260132
0.141714
0.308583
0.140476
0.467834
0.11927
0.279838
0.260381
0.300704
0.120924
0.251125
0.242991
0.365518
0.167581
0.307812
0.0979781
0.329593
0.126316
0.241019
0.134877
0.296936
0.198322
0.336713
0.175565
0.327609
0.183811
0.356274
0.136273
0.317454
0.119379
0.396931
0.1614
0.271156
0.149964
0.336623
0.18405
0.317182
0.107537
0.315819
0.206087
0.39256
0.141803
0.4576
0.145135
0.455848
0.153086
0.309826
0.143614
0.415907
0.0987896
0.392398
0.179519
0.256877
0.241611
0.462719
0.176107
0.27409
0.258679
0.410214
0.153362
0.406825
0.118056
0.26871
0.13579
0.275989
0.174208
0.304626
0.199764
0.330679
0.134739
0.322819
0.155837
0.263909
0.165595
0.319092
0.102168
0.323804
0.100076
0.353471
0.173832
0.321188
0.154103
0.312014
0.140658
0.321041
0.225597
0.283341
0.182208
0.318351
0.235601
0.302632
0.244629
0.400994
0.145636
0.394554
0.118141
0.3881
0.131373
0.311569
0.184629
0.22587
0.216652
0.307006
0.185232
0.338029
0.130313
0.391773
0.190212
0.279334
0.252039
0.302562
0.148534
0.310873
0.144414
0.299064
0.146265
0.362363
0.186472
0.265636
0.253238
0.30875
0.126997
0.272778
0.166086
0.24652
0.234929
0.238855
0.223561
0.265239
0.245938
0.328712
0.190454
0.297308
0.222733
0.23612
0.229968
0.25871
0.235801
0.346587
0.242959
0.306077
0.295836
0.260507
0.24276
0.313474
0.268341
0.278081
0.249087
0.26052
0.244368
0.352337
0.222428
0.381684
0.241758
0.319893
0.193079
0.314429
0.288002
0.346148
0.220721
0.298727
0.27308
0.339722
0.305293
0.335192
0.2552
0.296151
0.269706
0.276066
0.266027
0.38852
0.186357
0.372686
0.124325
0.292111
0.278704
0.356458
0.351344
0.292323
0.279569
0.290762
0.278366
0.399427
0.252741
0.358136
0.340424
0.268538
0.241461
0.291329
0.283052
0.325813
0.225262
0.268497
0.245381
0.317943
0.274615
0.260845
0.236375
0.247874
0.241948
0.31109
0.2852
0.301075
0.280367
0.271307
0.253604
