# vtk DataFile Version 3.0
Tree
ASCII
DATASET POLYDATA
POINTS 400 float
-0.004 0.02 0.0265
0.0065 0.01 0.026302
0.00545 0.0108441 0.0238453
0.00725 0.009063 0.02275
0.00692542 0.00908008 0.0230807
0.008403 0.00575 0.023
0.0029328 0.0142516 0.0226018
0.003879 0.01375 0.0215
0.00823094 0.00654922 0.0223194
0.009055 0.00575 0.0205
0.00882802 0.00558079 0.0211662
0.009023 0.003 0.02175
0.00634946 0.00994779 0.022672
0.0065 0.010868 0.01825
0.000742528 0.0157508 0.0219865
0.00125 0.015081 0.02025
0.00879214 0.00322823 0.0221174
0.00775 -0.000347 0.0255
0.00907469 0.00424535 0.0207378
0.00975 0.0035 0.018549
0.00555387 0.011126 0.0187513
0.00325 0.012578 0.01625
0.00861619 0.00160627 0.0223363
0.009057 0.0005 0.02
0.00953659 0.00415624 0.0188181
0.009528 0.00675 0.01625
0.00790804 -0.000411055 0.0241107
0.007572 -0.00225 0.02325
0.000582385 0.0154791 0.0206787
-0.00225 0.01625 0.018971
0.00924222 0.00658026 0.0164463
0.0085 0.008367 0.01475
-0.00370635 0.0178665 0.0240076
-0.005 0.017556 0.0235
0.00965909 0.00350218 0.0185301
0.01 0.00075 0.01728
0.00290441 0.0124877 0.0163603
4.1e-05 0.0135 0.0145
0.0082804 0.0081909 0.014963
0.0055 0.010555 0.013
0.00779265 -0.00178848 0.0231016
0.0085 -0.0025 0.02053
-0.00185023 0.0157343 0.018619
-0.00325 0.015069 0.01625
0.00954707 0.00559954 0.0166742
0.010852 0.00425 0.0135
0.0054337 0.0103222 0.0131911
0.00288 0.01175 0.012
-0.00496722 0.0174288 0.0235376
-0.008 0.015871 0.0225
-0.00646951 0.0165492 0.021852
-0.006 0.016513 0.019
0.010073 0.00127052 0.0168716
0.010553 0.00025 0.01475
0.0103003 0.00522153 0.0138418
0.01 0.006563 0.012
0.00706321 0.00926997 0.0130298
0.008 0.009 0.01059
-0.00787545 0.0155472 0.0223951
-0.010062 0.01225 0.023
0.00817686 -0.00276289 0.0212551
0.007556 -0.00575 0.02075
0.00803579 -0.00437413 0.0200716
0.00856 -0.00425 0.01775
-0.00291405 0.0149462 0.0161886
-0.00325 0.01406 0.014
0.000436738 0.0131316 0.0141065
-0.001 0.013052 0.0115
0.00714517 0.00950215 0.0110104
0.00575 0.010562 0.01
0.0075475 -0.00558851 0.0208818
0.00657 -0.00725 0.023
-0.00971419 0.0124113 0.0222948
-0.010694 0.01 0.021
-0.00870872 0.0142653 0.0214124
-0.00875 0.014553 0.019
-0.00350679 0.0147223 0.0156062
-0.0065 0.015056 0.01625
0.0105784 0.000634926 0.0146292
0.011055 0.00075 0.0125
0.0102925 0.00587698 0.0122523
0.01151 0.00425 0.01025
0.00366649 0.0114367 0.0115159
0.0035 0.011855 0.00925
-0.0108245 0.0101587 0.021819
-0.012 0.0085 0.022815
-0.0102484 0.0116453 0.0215
-0.010353 0.01225 0.02
-0.00904837 0.0141191 0.019159
-0.009851 0.01325 0.0175
0.00861352 -0.00415965 0.0178401
0.0095 -0.00375 0.014755
-0.00547217 0.0145362 0.015064
-0.00625 0.013581 0.01275
0.00315995 0.0118403 0.00989678
0.00075 0.012557 0.0095
0.0109076 0.00554063 0.0103579
0.01075 0.007 0.008347
0.00660308 -0.00741832 0.0229522
0.005571 -0.00975 0.02525
-0.0117208 0.00842285 0.022432
-0.012273 0.00475 0.022
0.00709199 -0.00698927 0.0211737
0.007 -0.0085 0.019558
-0.0108832 0.00997595 0.0209977
-0.01157 0.00925 0.018
0.00881929 -0.00458109 0.0158808
0.008082 -0.00625 0.01525
0.0108136 0.00032707 0.0130399
0.01025 -0.002049 0.01225
-0.00572499 0.0138348 0.0129898
-0.004 0.013552 0.01
0.0105778 0.00708711 0.00859245
0.01 0.008562 0.0075
0.0063717 0.0103372 0.00985826
0.0075 0.011 0.007039
0.00611403 -0.00895733 0.0233509
0.006036 -0.01025 0.02175
-0.0119982 0.00665513 0.0209829
-0.012 0.00675 0.01928
0.00816459 -0.00605125 0.0156653
0.00725 -0.008049 0.017
-0.00983015 0.0131768 0.0176329
-0.01125 0.011051 0.01525
-0.0103492 0.0119899 0.0152619
-0.00925 0.012582 0.01325
0.0106404 -0.000824978 0.0118728
0.011 -0.000393 0.01
0.010911 -0.000209614 0.0102256
0.011058 0.00175 0.008
0.00227398 0.0122715 0.00888871
0.00275 0.012561 0.00675
0.00659921 0.0111402 0.0074247
0.00525 0.012069 0.006
-0.0123356 0.00477438 0.021784
-0.01325 0.00125 0.022419
-0.0127724 0.00220012 0.0210597
-0.01257 0.00175 0.0195
-0.0121201 0.00654938 0.0194556
-0.012861 0.0055 0.01725
0.00751523 -0.00747133 0.0155629
0.00725 -0.008053 0.0145
0.00924621 -0.00419517 0.0147083
0.009 -0.005327 0.01225
-0.00566999 0.0135274 0.0112659
-0.0075 0.01306 0.01025
-0.0041844 0.0135296 0.00977705
-0.00275 0.0135 0.007757
0.0110107 0.00182292 0.00822221
0.011057 0.00425 0.00625
0.00230647 0.0125707 0.00715245
0.0005 0.013189 0.0055
0.0100908 0.0083301 0.00740996
0.009534 0.00975 0.00475
-0.0130902 0.00122653 0.0218883
-0.01303 -0.00075 0.02125
0.00599211 -0.010041 0.0217622
0.005572 -0.01125 0.01875
0.00580751 -0.0107498 0.0188429
0.006053 -0.0105 0.0165
-0.0126804 0.00616917 0.0175655
-0.013 0.008256 0.01525
-0.0111188 0.0111924 0.0149382
-0.01205 0.01025 0.013
-0.00965179 0.0123483 0.0134432
-0.01 0.012055 0.01075
0.0103166 -0.00182373 0.0116842
0.00975 -0.0035 0.009152
0.0108278 0.00014949 0.00874968
0.0105 -0.00125 0.007244
-0.00288426 0.0135231 0.00760985
-0.002 0.013557 0.0055
0.0109056 0.0042275 0.00623333
0.010556 0.00625 0.0045
0.00923811 0.0098631 0.00517839
0.008 0.011371 0.004
0.00550706 -0.010061 0.0247372
0.004067 -0.0135 0.02525
0.00558525 -0.0111103 0.0207546
0.00475 -0.01305 0.0215
-0.0127607 0.00159153 0.0197811
-0.013542 -0.00025 0.0185
-0.0132962 0.00110929 0.01842
-0.013557 0.0025 0.01675
-0.013125 0.00643959 0.0161062
-0.013903 0.00475 0.015
0.00718161 -0.00810553 0.014577
0.00625 -0.00955 0.013
0.00667654 -0.00891877 0.0131458
0.0075 -0.007827 0.011
0.00953599 -0.00377026 0.00978718
0.0085 -0.005902 0.00925
-0.00434672 0.0135349 0.00844597
-0.00625 0.013556 0.0075
0.0105959 -0.000627138 0.00740637
0.010553 0.0005 0.0055
0.00149355 0.0130888 0.00547659
0.0025 0.013361 0.004
0.00941333 0.00956912 0.00475848
0.00975 0.008046 0.00325
0.00564929 0.0119486 0.00596859
0.0055 0.013 0.003028
-0.0131821 -0.000601336 0.0215454
-0.014 -0.0035 0.022129
0.00481046 -0.0127287 0.0206911
0.00425 -0.013565 0.01925
0.00562924 -0.0111272 0.0171323
0.00475 -0.012526 0.01675
0.00586117 -0.0107212 0.0163907
0.0055 -0.01087 0.0145
-0.013696 0.00585067 0.014864
-0.014053 0.00675 0.01325
-0.012158 0.01015 0.0132002
-0.0135 0.008816 0.0115
-0.0126506 0.00978441 0.011581
-0.012 0.01075 0.009846
-0.0071809 0.013181 0.0102093
-0.00875 0.013023 0.008
0.00897152 -0.00477744 0.0086519
0.009 -0.004322 0.0065
0.0102873 -0.000560684 0.00597004
0.009555 -0.002 0.005
0.010716 0.0042992 0.005122
0.010528 0.00275 0.00375
0.00176274 0.0132932 0.00437681
-0.00025 0.013557 0.003
0.00939167 0.00908052 0.00345271
0.008855 0.01 0.00225
0.00394899 -0.0136178 0.0251423
0.003066 -0.0155 0.02525
-0.0137631 -0.00315432 0.0215328
-0.013855 -0.00475 0.0205
-0.01386 -0.00414417 0.0204639
-0.014068 -0.0035 0.01825
-0.0136098 -2.29916e-05 0.0181677
-0.0145 -0.00125 0.016281
-0.0142675 -0.000603708 0.0165761
-0.014556 0.001 0.01475
0.00538751 -0.0109718 0.0148005
0.004 -0.011884 0.013
0.00625929 -0.00946305 0.012806
0.00525 -0.010507 0.01125
0.00695237 -0.00843147 0.011095
0.00625 -0.00905 0.0095
0.00657964 -0.00866992 0.00968565
0.00725 -0.007528 0.00775
-0.00621321 0.0134157 0.00730703
-0.00775 0.013073 0.006
-0.00655823 0.0133182 0.00599825
-0.00525 0.013557 0.0045
0.0103688 0.000213615 0.00529385
0.00975 0.0005 0.003121
0.010512 0.00344828 0.00387544
0.010051 0.00475 0.002
0.0088158 0.00999674 0.00246973
0.00754 0.01175 0.0015
0.00497583 0.0129073 0.0032359
0.0035 0.01357 0.00125
0.00325944 -0.0152798 0.0247342
0.003 -0.016327 0.0235
0.00426132 -0.013617 0.0198491
0.00325 -0.015549 0.02075
0.00343362 -0.0147961 0.0197617
0.00275 -0.015068 0.01825
0.00461136 -0.0124911 0.0167071
0.00325 -0.014 0.01616
0.00343673 -0.0134979 0.015731
0.00275 -0.0135 0.014159
-0.0139657 0.00487218 0.0146665
-0.01475 0.0035 0.01288
-0.0145618 0.00438932 0.0128907
-0.01475 0.0055 0.011387
-0.0133757 0.00890009 0.0112769
-0.01425 0.007549 0.00975
-0.0123507 0.010321 0.010091
-0.01325 0.009548 0.00825
-0.00900342 0.0127361 0.00825023
-0.011 0.011863 0.007
0.00710548 -0.00756413 0.00773941
0.0075 -0.006352 0.0055
0.00949394 -0.00204958 0.00503041
0.0085 -0.003822 0.004
0.00903757 -0.00247155 0.00399217
0.009 -0.001531 0.0025
-0.00532322 0.0134925 0.00455453
-0.00325 0.013557 0.002
0.0100442 0.00356345 0.00237082
0.0095 0.002 0.001181
0.00991169 0.00470963 0.00189012
0.009069 0.00675 0.0005
0.00463615 0.0131983 0.00160549
0.005871 0.013 0.00025
0.00824912 0.0102916 0.00139789
0.00825 0.009046 -0.00025
-0.0138565 -0.00456825 0.0204892
-0.014084 -0.00825 0.02225
-0.0142825 -0.00645274 0.0202522
-0.014544 -0.00675 0.0195
-0.014209 -0.00424624 0.0185713
-0.01475 -0.005613 0.0175
-0.0146589 -0.004654 0.0174228
-0.015043 -0.00375 0.016
-0.0144986 -0.0011638 0.0160999
-0.015071 -0.00225 0.01425
-0.0150537 -0.00149931 0.014293
-0.0155 -0.0005 0.012818
-0.0153816 -0.000489814 0.0130317
-0.015515 0.0015 0.0115
0.00524251 -0.0104412 0.0115301
0.00325 -0.01205 0.01025
0.00445783 -0.0109534 0.00999124
0.00475 -0.01055 0.00875
0.00650336 -0.00839003 0.00822517
0.005556 -0.00925 0.00725
-0.0108708 0.0118309 0.00695762
-0.01225 0.011 0.005777
-0.0110863 0.0117103 0.00629478
-0.00975 0.012572 0.0045
-0.00596142 0.0134536 0.0047617
-0.0075 0.013551 0.00325
-0.00490123 0.0135383 0.00263581
-0.00575 0.013557 0.00175
2.30585e-05 0.0136334 0.00270043
-0.001 0.014056 0.00075
2.73787e-05 0.0139208 0.00116414
0.0015 0.014056 -0
0.00957694 0.00263213 0.00126117
0.009 0.0035 -0.000541
0.00790616 0.0099917 6.73258e-05
0.007023 0.011 -0.001
0.0028808 -0.0161795 0.024212
0.0015 -0.017891 0.0255
0.00205876 -0.0172369 0.0240048
0.001523 -0.018 0.022
0.00308958 -0.0155529 0.0203432
0.00175 -0.017029 0.01975
0.00204169 -0.0165564 0.0196177
0.00125 -0.0165 0.017661
0.00137 -0.0162495 0.0175955
0.001 -0.015557 0.01575
0.00269042 -0.0136394 0.0145333
0.001 -0.0145 0.013801
0.0016157 -0.0140135 0.0135344
0.00175 -0.0135 0.012221
0.0016856 -0.0136036 0.0122997
0.001549 -0.01325 0.01025
-0.0147692 0.00492712 0.0114938
-0.01525 0.00355 0.00925
-0.0150744 0.00449651 0.00950852
-0.015035 0.00575 0.00825
-0.0133142 0.00923008 0.00835444
-0.01425 0.00775 0.007045
-0.0137405 0.00867751 0.00710142
-0.0135 0.009371 0.00575
0.00580395 -0.00895075 0.0071633
0.0055 -0.008771 0.00475
0.00712532 -0.00678291 0.00547746
0.0065 -0.006852 0.0035
0.00847015 -0.0035873 0.0037813
0.00725 -0.00475 0.002453
0.00887015 -0.00192747 0.00269288
0.008 -0.002549 0.001
0.00830494 -0.00205933 0.00134746
0.0085 -0.00025 0.000217
-0.00369583 0.0136175 0.00182167
-0.00325 0.014025 -0.0005
0.00528265 0.0131585 0.000405982
0.00405 0.01375 -0.00125
0.00912005 0.00591031 0.000203629
0.008529 0.0055 -0.00175
0.00486921 0.0131407 -0.000930086
0.005567 0.01225 -0.002
0.0014688 -0.0180062 0.0246015
0.00075 -0.01905 0.024
-0.0142641 -0.00844866 0.0215605
-0.014557 -0.0105 0.0215
-0.0145639 -0.00932946 0.0209242
-0.015 -0.00925 0.019357
-0.0148905 -0.00909646 0.0195202
-0.015059 -0.008 0.0175
0.000558401 -0.0161451 0.0164106
-0.001 -0.016866 0.016
-0.0149804 -0.0044514 0.016358
-0.015556 -0.0065 0.015
-0.000614232 -0.016491 0.0157959
-0.00125 -0.015578 0.01375
-0.0154179 -0.00551834 0.0146959
-0.015556 -0.00475 0.01275
0.00095992 -0.0137583 0.0114199
-0.00075 -0.01456 0.0115
-0.0155187 -0.00467745 0.0129954
-0.015556 -0.00275 0.01075
-0.015547 -0.00265259 0.0109389
-0.015556 -0.00075 0.0095
-0.0155539 -0.000646621 0.00949533
-0.015556 0.00125 0.00825
0.00347111 -0.0117963 0.00979513
0.0025 -0.012353 0.0075
0.00527158 -0.00933486 0.00613532
0.00425 -0.010528 0.00625
LINES 399 1197
2 2 1
2 6 2
2 4 3
2 12 4
2 8 5
2 14 6
2 6 7
2 4 8
2 10 9
2 8 10
2 16 11
2 2 12
2 20 13
2 32 14
2 28 15
2 18 16
2 26 17
2 10 18
2 34 19
2 12 20
2 36 21
2 16 22
2 22 23
2 18 24
2 30 25
2 22 26
2 40 27
2 14 28
2 42 29
2 44 30
2 38 31
2 0 32
2 48 33
2 24 34
2 52 35
2 20 36
2 66 37
2 30 38
2 46 39
2 26 40
2 60 41
2 28 42
2 64 43
2 24 44
2 54 45
2 56 46
2 82 47
2 32 48
2 58 49
2 48 50
2 50 51
2 34 52
2 78 53
2 44 54
2 80 55
2 38 56
2 68 57
2 50 58
2 72 59
2 40 60
2 70 61
2 60 62
2 90 63
2 42 64
2 76 65
2 36 66
2 66 67
2 56 68
2 114 69
2 62 70
2 98 71
2 74 72
2 104 73
2 58 74
2 88 75
2 64 76
2 92 77
2 52 78
2 108 79
2 54 80
2 96 81
2 46 82
2 94 83
2 86 84
2 100 85
2 72 86
2 86 87
2 74 88
2 122 89
2 62 90
2 142 91
2 76 92
2 110 93
2 82 94
2 130 95
2 80 96
2 112 97
2 102 98
2 176 99
2 84 100
2 134 101
2 70 102
2 102 103
2 84 104
2 104 105
2 90 106
2 120 107
2 78 108
2 166 109
2 92 110
2 146 111
2 96 112
2 152 113
2 68 114
2 132 115
2 98 116
2 156 117
2 100 118
2 138 119
2 106 120
2 140 121
2 88 122
2 162 123
2 122 124
2 164 125
2 108 126
2 128 127
2 126 128
2 148 129
2 94 130
2 150 131
2 114 132
2 200 133
2 118 134
2 154 135
2 134 136
2 180 137
2 118 138
2 160 139
2 120 140
2 186 141
2 106 142
2 142 143
2 110 144
2 216 145
2 144 146
2 170 147
2 168 148
2 172 149
2 130 150
2 196 151
2 112 152
2 198 153
2 136 154
2 202 155
2 116 156
2 158 157
2 178 158
2 208 159
2 138 160
2 184 161
2 124 162
2 212 163
2 124 164
2 164 165
2 126 166
2 190 167
2 128 168
2 194 169
2 192 170
2 170 171
2 148 172
2 222 173
2 152 174
2 174 175
2 116 176
2 228 177
2 156 178
2 204 179
2 136 180
2 234 181
2 180 182
2 182 183
2 160 184
2 268 185
2 140 186
2 240 187
2 186 188
2 242 189
2 166 190
2 218 191
2 146 192
2 246 193
2 168 194
2 250 195
2 150 196
2 224 197
2 174 198
2 226 199
2 132 200
2 256 201
2 154 202
2 230 203
2 178 204
2 260 205
2 158 206
2 264 207
2 206 208
2 238 209
2 184 210
2 210 211
2 162 212
2 272 213
2 212 214
2 274 215
2 144 216
2 276 217
2 190 218
2 218 219
2 194 220
2 280 221
2 172 222
2 252 223
2 196 224
2 322 225
2 198 226
2 254 227
2 176 228
2 258 229
2 202 230
2 294 231
2 230 232
2 298 233
2 182 234
2 302 235
2 234 236
2 236 237
2 208 238
2 238 239
2 188 240
2 308 241
2 188 242
2 244 243
2 242 244
2 278 245
2 192 246
2 248 247
2 246 248
2 284 249
2 220 250
2 250 251
2 222 252
2 288 253
2 226 254
2 292 255
2 200 256
2 290 257
2 228 258
2 330 259
2 204 260
2 334 261
2 260 262
2 262 263
2 206 264
2 266 265
2 264 266
2 340 267
2 210 268
2 270 269
2 268 270
2 346 271
2 214 272
2 272 273
2 214 274
2 350 275
2 216 276
2 314 277
2 312 278
2 356 279
2 220 280
2 358 281
2 280 282
2 360 283
2 318 284
2 364 285
2 252 286
2 326 287
2 286 288
2 368 289
2 256 290
2 366 291
2 254 292
2 328 293
2 232 294
2 374 295
2 294 296
2 296 297
2 232 298
2 300 299
2 298 300
2 382 301
2 236 302
2 304 303
2 302 304
2 306 305
2 304 306
2 306 307
2 240 308
2 396 309
2 308 310
2 310 311
2 244 312
2 354 313
2 276 314
2 316 315
2 314 316
2 316 317
2 248 318
2 318 319
2 284 320
2 320 321
2 224 322
2 324 323
2 322 324
2 324 325
2 286 326
2 326 327
2 292 328
2 328 329
2 258 330
2 372 331
2 330 332
2 332 333
2 262 334
2 336 335
2 334 336
2 338 337
2 336 338
2 380 339
2 266 340
2 342 341
2 340 342
2 344 343
2 342 344
2 388 345
2 270 346
2 348 347
2 346 348
2 348 349
2 274 350
2 352 351
2 350 352
2 352 353
2 312 354
2 398 355
2 278 356
2 356 357
2 282 358
2 358 359
2 282 360
2 362 361
2 360 362
2 362 363
2 320 364
2 364 365
2 290 366
2 370 367
2 288 368
2 368 369
2 366 370
2 370 371
2 332 372
2 372 373
2 296 374
2 376 375
2 374 376
2 378 377
2 376 378
2 378 379
2 338 380
2 384 381
2 300 382
2 386 383
2 380 384
2 384 385
2 382 386
2 390 387
2 344 388
2 388 389
2 386 390
2 392 391
2 390 392
2 394 393
2 392 394
2 394 395
2 310 396
2 396 397
2 354 398
2 398 399
CELL_DATA 399
SCALARS radius float
LOOKUP_TABLE default
0.139396
0.953746
0.09022
0.944672
0.112823
0.95434
0.117441
0.944398
0.103417
0.943861
0.0958096
0.952753
0.125578
0.994173
0.102731
0.748927
0.12896
0.943447
0.0639448
0.279434
0.112975
0.748404
0.147535
0.748701
0.0942294
0.746488
0.102785
0.484088
0.102221
0.536043
0.0951147
1.08918
0.0625939
0.567061
0.108252
0.270711
0.16541
0.53507
0.099385
0.745203
0.117283
0.482541
0.0889103
0.619146
0.129226
0.431406
0.141195
0.676426
0.0825287
0.676247
0.136703
0.56679
0.0986751
0.436761
0.121176
0.534067
0.136386
0.67438
0.104367
0.744551
0.0860381
0.743579
0.0790908
0.481007
0.133579
0.263986
0.240273
0.416096
0.12628
0.639955
0.0863518
0.62739
0.0823439
0.673968
0.0971791
0.479992
0.13594
0.56547
0.117021
0.432957
0.146996
0.429641
0.137849
0.624727
0.0964408
0.626426
0.12588
0.389708
0.0736181
0.530197
0.12962
0.476519
0.111121
0.424496
0.176799
0.42977
0.106808
0.636195
0.126207
0.620303
0.0842081
0.639437
0.15816
0.172612
0.166125
0.52961
0.114591
0.564467
0.120756
0.472802
0.100036
0.423959
0.10798
0.411153
0.149091
0.635664
0.0956047
0.619525
0.0909069
0.517741
0.160272
0.387684
0.101258
0.386797
0.126551
0.562786
0.0995944
0.536361
0.100718
0.419594
0.145748
0.407143
0.128048
0.571196
0.111903
0.570585
0.103662
0.371856
0.122117
0.515864
0.0858268
0.213741
0.196497
0.470747
0.106316
0.415964
0.115493
0.436294
0.0987677
0.408859
0.179628
0.421687
0.116501
0.513777
0.104063
0.580269
0.131596
0.475641
0.129215
0.370036
0.163476
0.365024
0.0992282
0.209784
0.19315
0.288241
0.147662
0.535214
0.130124
0.223098
0.212264
0.434498
0.19597
0.419314
0.204426
0.394655
0.109759
0.579403
0.146963
0.368757
0.116923
0.366006
0.1696
0.365549
0.117898
0.510654
0.108202
0.509845
0.156506
0.280996
0.198212
0.414027
0.107132
0.412646
0.1375
0.402589
0.181763
0.402449
0.187201
0.400367
0.156573
0.512001
0.130327
0.442941
0.139739
0.472259
0.106263
0.285774
0.157412
0.354309
0.170051
0.362408
0.126166
0.359912
0.144817
0.318621
0.130373
0.266688
0.223605
0.408287
0.089681
0.43279
0.15952
0.390298
0.179471
0.399168
0.136644
0.390305
0.157749
0.510564
0.0967942
0.507718
0.146542
0.35344
0.111455
0.349122
0.198645
0.276682
0.258533
0.352835
0.128927
0.445812
0.148898
0.439288
0.125645
0.391198
0.169468
0.388501
0.103725
0.230312
0.212657
0.418959
0.133477
0.384943
0.24391
0.395952
0.209185
0.38739
0.1775
0.437481
0.141412
0.432676
0.190036
0.434429
0.168256
0.432299
0.158735
0.340738
0.163908
0.335967
0.162315
0.227556
0.213815
0.326602
0.148389
0.314625
0.116551
0.34529
0.220994
0.382231
0.156428
0.380578
0.163097
0.3548
0.198284
0.411104
0.196971
0.351335
0.242104
0.387617
0.196282
0.379116
0.254039
0.364705
0.169578
0.362418
0.15403
0.435098
0.158769
0.429485
0.156788
0.326216
0.177212
0.32182
0.160287
0.302807
0.287029
0.34941
0.196102
0.343458
0.212704
0.43351
0.165065
0.306979
0.22342
0.301273
0.252993
0.377441
0.208832
0.35182
0.214387
0.376689
0.267875
0.362588
0.305268
0.296675
0.264336
0.341935
0.286775
0.378467
0.237037
0.364977
0.25621
0.420094
0.162469
0.414684
0.154329
0.406198
0.233599
0.423631
0.209043
0.416067
0.151203
0.397677
0.297853
0.322424
0.225722
0.308084
0.260813
0.316822
0.230756
0.305577
0.253272
0.342857
0.260284
0.339652
0.305065
0.270067
0.251299
0.328426
0.209475
0.314431
0.279758
0.322986
0.295861
0.366142
0.261383
0.344792
0.299252
0.346281
0.2871
0.316816
0.264389
0.352896
0.212519
0.339329
0.167243
0.308894
0.291603
0.398632
0.235919
0.422128
0.181027
0.369868
0.334621
0.414791
0.139783
0.390253
0.320786
0.402964
0.159368
0.397277
0.174017
0.388538
0.376535
0.313773
0.285825
0.329597
0.262906
