# vtk DataFile Version 3.0
Tree
ASCII
DATASET POLYDATA
POINTS 600 float
-0.004 0.02 0.0265
0.0065 0.01 0.026302
0.00545 0.0108441 0.0238453
0.00725 0.009063 0.02275
0.00692542 0.00908008 0.0230807
0.008403 0.00575 0.023
0.0029328 0.0142516 0.0226018
0.003879 0.01375 0.0215
0.00823094 0.00654922 0.0223194
0.009055 0.00575 0.0205
0.00882802 0.00558079 0.0211662
0.009023 0.003 0.02175
0.00634946 0.00994779 0.022672
0.0065 0.010868 0.01825
0.000742528 0.0157508 0.0219865
0.00125 0.015081 0.02025
0.00879214 0.00322823 0.0221174
0.00775 -0.000347 0.0255
0.00907469 0.00424535 0.0207378
0.00975 0.0035 0.018549
0.00555387 0.011126 0.0187513
0.00325 0.012578 0.01625
0.00861619 0.00160627 0.0223363
0.009057 0.0005 0.02
0.00953659 0.00415624 0.0188181
0.009528 0.00675 0.01625
0.00790804 -0.000411055 0.0241107
0.007572 -0.00225 0.02325
0.000582385 0.0154791 0.0206787
-0.00225 0.01625 0.018971
0.00924222 0.00658026 0.0164463
0.0085 0.008367 0.01475
-0.00370635 0.0178665 0.0240076
-0.005 0.017556 0.0235
0.00965909 0.00350218 0.0185301
0.01 0.00075 0.01728
0.00290441 0.0124877 0.0163603
4.1e-05 0.0135 0.0145
0.0082804 0.0081909 0.014963
0.0055 0.010555 0.013
0.00779265 -0.00178848 0.0231016
0.0085 -0.0025 0.02053
-0.00185023 0.0157343 0.018619
-0.00325 0.015069 0.01625
0.00954707 0.00559954 0.0166742
0.010852 0.00425 0.0135
0.0054337 0.0103222 0.0131911
0.00288 0.01175 0.012
-0.00496722 0.0174288 0.0235376
-0.008 0.015871 0.0225
-0.00646951 0.0165492 0.021852
-0.006 0.016513 0.019
0.010073 0.00127052 0.0168716
0.010553 0.00025 0.01475
0.0103003 0.00522153 0.0138418
0.01 0.006563 0.012
0.00706321 0.00926997 0.0130298
0.008 0.009 0.01059
-0.00787545 0.0155472 0.0223951
-0.010062 0.01225 0.023
0.00817686 -0.00276289 0.0212551
0.007556 -0.00575 0.02075
0.00803579 -0.00437413 0.0200716
0.00856 -0.00425 0.01775
-0.00291405 0.0149462 0.0161886
-0.00325 0.01406 0.014
0.000436738 0.0131316 0.0141065
-0.001 0.013052 0.0115
0.00714517 0.00950215 0.0110104
0.00575 0.010562 0.01
0.0075475 -0.00558851 0.0208818
0.00657 -0.00725 0.023
-0.00971419 0.0124113 0.0222948
-0.010694 0.01 0.021
-0.00870872 0.0142653 0.0214124
-0.00875 0.014553 0.019
-0.00350679 0.0147223 0.0156062
-0.0065 0.015056 0.01625
0.0105784 0.000634926 0.0146292
0.011055 0.00075 0.0125
0.0102925 0.00587698 0.0122523
0.01151 0.00425 0.01025
0.00366649 0.0114367 0.0115159
0.0035 0.011855 0.00925
-0.0108245 0.0101587 0.021819
-0.012 0.0085 0.022815
-0.0102484 0.0116453 0.0215
-0.010353 0.01225 0.02
-0.00904837 0.0141191 0.019159
-0.009851 0.01325 0.0175
0.00861352 -0.00415965 0.0178401
0.0095 -0.00375 0.014755
-0.00547217 0.0145362 0.015064
-0.00625 0.013581 0.01275
0.00315995 0.0118403 0.00989678
0.00075 0.012557 0.0095
0.0109076 0.00554063 0.0103579
0.01075 0.007 0.008347
0.00660308 -0.00741832 0.0229522
0.005571 -0.00975 0.02525
-0.0117208 0.00842285 0.022432
-0.012273 0.00475 0.022
0.00709199 -0.00698927 0.0211737
0.007 -0.0085 0.019558
-0.0108832 0.00997595 0.0209977
-0.01157 0.00925 0.018
0.00881929 -0.00458109 0.0158808
0.008082 -0.00625 0.01525
0.0108136 0.00032707 0.0130399
0.01025 -0.002049 0.01225
-0.00572499 0.0138348 0.0129898
-0.004 0.013552 0.01
0.0105778 0.00708711 0.00859245
0.01 0.008562 0.0075
0.0063717 0.0103372 0.00985826
0.0075 0.011 0.007039
0.00611403 -0.00895733 0.0233509
0.006036 -0.01025 0.02175
-0.0119982 0.00665513 0.0209829
-0.012 0.00675 0.01928
0.00816459 -0.00605125 0.0156653
0.00725 -0.008049 0.017
-0.00983015 0.0131768 0.0176329
-0.01125 0.011051 0.01525
-0.0103492 0.0119899 0.0152619
-0.00925 0.012582 0.01325
0.0106404 -0.000824978 0.0118728
0.011 -0.000393 0.01
0.010911 -0.000209614 0.0102256
0.011058 0.00175 0.008
0.00227398 0.0122715 0.00888871
0.00275 0.012561 0.00675
0.00659921 0.0111402 0.0074247
0.00525 0.012069 0.006
-0.0123356 0.00477438 0.021784
-0.01325 0.00125 0.022419
-0.0127724 0.00220012 0.0210597
-0.01257 0.00175 0.0195
-0.0121201 0.00654938 0.0194556
-0.012861 0.0055 0.01725
0.00751523 -0.00747133 0.0155629
0.00725 -0.008053 0.0145
0.00924621 -0.00419517 0.0147083
0.009 -0.005327 0.01225
-0.00566999 0.0135274 0.0112659
-0.0075 0.01306 0.01025
-0.0041844 0.0135296 0.00977705
-0.00275 0.0135 0.007757
0.0110107 0.00182292 0.00822221
0.011057 0.00425 0.00625
0.00230647 0.0125707 0.00715245
0.0005 0.013189 0.0055
0.0100908 0.0083301 0.00740996
0.009534 0.00975 0.00475
-0.0130902 0.00122653 0.0218883
-0.01303 -0.00075 0.02125
0.00599211 -0.010041 0.0217622
0.005572 -0.01125 0.01875
0.00580751 -0.0107498 0.0188429
0.006053 -0.0105 0.0165
-0.0126804 0.00616917 0.0175655
-0.013 0.008256 0.01525
-0.0111188 0.0111924 0.0149382
-0.01205 0.01025 0.013
-0.00965179 0.0123483 0.0134432
-0.01 0.012055 0.01075
0.0103166 -0.00182373 0.0116842
0.00975 -0.0035 0.009152
0.0108278 0.00014949 0.00874968
0.0105 -0.00125 0.007244
-0.00288426 0.0135231 0.00760985
-0.002 0.013557 0.0055
0.0109056 0.0042275 0.00623333
0.010556 0.00625 0.0045
0.00923811 0.0098631 0.00517839
0.008 0.011371 0.004
0.00550706 -0.010061 0.0247372
0.004067 -0.0135 0.02525
0.00558525 -0.0111103 0.0207546
0.00475 -0.01305 0.0215
-0.0127607 0.00159153 0.0197811
-0.013542 -0.00025 0.0185
-0.0132962 0.00110929 0.01842
-0.013557 0.0025 0.01675
-0.013125 0.00643959 0.0161062
-0.013903 0.00475 0.015
0.00718161 -0.00810553 0.014577
0.00625 -0.00955 0.013
0.00667654 -0.00891877 0.0131458
0.0075 -0.007827 0.011
0.00953599 -0.00377026 0.00978718
0.0085 -0.005902 0.00925
-0.00434672 0.0135349 0.00844597
-0.00625 0.013556 0.0075
0.0105959 -0.000627138 0.00740637
0.010553 0.0005 0.0055
0.00149355 0.0130888 0.00547659
0.0025 0.013361 0.004
0.00941333 0.00956912 0.00475848
0.00975 0.008046 0.00325
0.00564929 0.0119486 0.00596859
0.0055 0.013 0.003028
-0.0131821 -0.000601336 0.0215454
-0.014 -0.0035 0.022129
0.00481046 -0.0127287 0.0206911
0.00425 -0.013565 0.01925
0.00562924 -0.0111272 0.0171323
0.00475 -0.012526 0.01675
0.00586117 -0.0107212 0.0163907
0.0055 -0.01087 0.0145
-0.013696 0.00585067 0.014864
-0.014053 0.00675 0.01325
-0.012158 0.01015 0.0132002
-0.0135 0.008816 0.0115
-0.0126506 0.00978441 0.011581
-0.012 0.01075 0.009846
-0.0071809 0.013181 0.0102093
-0.00875 0.013023 0.008
0.00897152 -0.00477744 0.0086519
0.009 -0.004322 0.0065
0.0102873 -0.000560684 0.00597004
0.009555 -0.002 0.005
0.010716 0.0042992 0.005122
0.010528 0.00275 0.00375
0.00176274 0.0132932 0.00437681
-0.00025 0.013557 0.003
0.00939167 0.00908052 0.00345271
0.008855 0.01 0.00225
0.00394899 -0.0136178 0.0251423
0.003066 -0.0155 0.02525
-0.0137631 -0.00315432 0.0215328
-0.013855 -0.00475 0.0205
-0.01386 -0.00414417 0.0204639
-0.014068 -0.0035 0.01825
-0.0136098 -2.29916e-05 0.0181677
-0.0145 -0.00125 0.016281
-0.0142675 -0.000603708 0.0165761
-0.014556 0.001 0.01475
0.00538751 -0.0109718 0.0148005
0.004 -0.011884 0.013
0.00625929 -0.00946305 0.012806
0.00525 -0.010507 0.01125
0.00695237 -0.00843147 0.011095
0.00625 -0.00905 0.0095
0.00657964 -0.00866992 0.00968565
0.00725 -0.007528 0.00775
-0.00621321 0.0134157 0.00730703
-0.00775 0.013073 0.006
-0.00655823 0.0133182 0.00599825
-0.00525 0.013557 0.0045
0.0103688 0.000213615 0.00529385
0.00975 0.0005 0.003121
0.010512 0.00344828 0.00387544
0.010051 0.00475 0.002
0.0088158 0.00999674 0.00246973
0.00754 0.01175 0.0015
0.00497583 0.0129073 0.0032359
0.0035 0.01357 0.00125
0.00325944 -0.0152798 0.0247342
0.003 -0.016327 0.0235
0.00426132 -0.013617 0.0198491
0.00325 -0.015549 0.02075
0.00343362 -0.0147961 0.0197617
0.00275 -0.015068 0.01825
0.00461136 -0.0124911 0.0167071
0.00325 -0.014 0.01616
0.00343673 -0.0134979 0.015731
0.00275 -0.0135 0.014159
-0.0139657 0.00487218 0.0146665
-0.01475 0.0035 0.01288
-0.0145618 0.00438932 0.0128907
-0.01475 0.0055 0.011387
-0.0133757 0.00890009 0.0112769
-0.01425 0.007549 0.00975
-0.0123507 0.010321 0.010091
-0.01325 0.009548 0.00825
-0.00900342 0.0127361 0.00825023
-0.011 0.011863 0.007
0.00710548 -0.00756413 0.00773941
0.0075 -0.006352 0.0055
0.00949394 -0.00204958 0.00503041
0.0085 -0.003822 0.004
0.00903757 -0.00247155 0.00399217
0.009 -0.001531 0.0025
-0.00532322 0.0134925 0.00455453
-0.00325 0.013557 0.002
0.0100442 0.00356345 0.00237082
0.0095 0.002 0.001181
0.00991169 0.00470963 0.00189012
0.009069 0.00675 0.0005
0.00463615 0.0131983 0.00160549
0.005871 0.013 0.00025
0.00824912 0.0102916 0.00139789
0.00825 0.009046 -0.00025
-0.0138565 -0.00456825 0.0204892
-0.014084 -0.00825 0.02225
-0.0142825 -0.00645274 0.0202522
-0.014544 -0.00675 0.0195
-0.014209 -0.00424624 0.0185713
-0.01475 -0.005613 0.0175
-0.0146589 -0.004654 0.0174228
-0.015043 -0.00375 0.016
-0.0144986 -0.0011638 0.0160999
-0.015071 -0.00225 0.01425
-0.0150537 -0.00149931 0.014293
-0.0155 -0.0005 0.012818
-0.0153816 -0.000489814 0.0130317
-0.015515 0.0015 0.0115
0.00524251 -0.0104412 0.0115301
0.00325 -0.01205 0.01025
0.00445783 -0.0109534 0.00999124
0.00475 -0.01055 0.00875
0.00650336 -0.00839003 0.00822517
0.005556 -0.00925 0.00725
-0.0108708 0.0118309 0.00695762
-0.01225 0.011 0.005777
-0.0110863 0.0117103 0.00629478
-0.00975 0.012572 0.0045
-0.00596142 0.0134536 0.0047617
-0.0075 0.013551 0.00325
-0.00490123 0.0135383 0.00263581
-0.00575 0.013557 0.00175
2.30585e-05 0.0136334 0.00270043
-0.001 0.014056 0.00075
2.73787e-05 0.0139208 0.00116414
0.0015 0.014056 -0
0.00957694 0.00263213 0.00126117
0.009 0.0035 -0.000541
0.00790616 0.0099917 6.73258e-05
0.007023 0.011 -0.001
0.0028808 -0.0161795 0.024212
0.0015 -0.017891 0.0255
0.00205876 -0.0172369 0.0240048
0.001523 -0.018 0.022
0.00308958 -0.0155529 0.0203432
0.00175 -0.017029 0.01975
0.00204169 -0.0165564 0.0196177
0.00125 -0.0165 0.017661
0.00137 -0.0162495 0.0175955
0.001 -0.015557 0.01575
0.00269042 -0.0136394 0.0145333
0.001 -0.0145 0.013801
0.0016157 -0.0140135 0.0135344
0.00175 -0.0135 0.012221
0.0016856 -0.0136036 0.0122997
0.001549 -0.01325 0.01025
-0.0147692 0.00492712 0.0114938
-0.01525 0.00355 0.00925
-0.0150744 0.00449651 0.00950852
-0.015035 0.00575 0.00825
-0.0133142 0.00923008 0.00835444
-0.01425 0.00775 0.007045
-0.0137405 0.00867751 0.00710142
-0.0135 0.009371 0.00575
0.00580395 -0.00895075 0.0071633
0.0055 -0.008771 0.00475
0.00712532 -0.00678291 0.00547746
0.0065 -0.006852 0.0035
0.00847015 -0.0035873 0.0037813
0.00725 -0.00475 0.002453
0.00887015 -0.00192747 0.00269288
0.008 -0.002549 0.001
0.00830494 -0.00205933 0.00134746
0.0085 -0.00025 0.000217
-0.00369583 0.0136175 0.00182167
-0.00325 0.014025 -0.0005
0.00528265 0.0131585 0.000405982
0.00405 0.01375 -0.00125
0.00912005 0.00591031 0.000203629
0.008529 0.0055 -0.00175
0.00486921 0.0131407 -0.000930086
0.005567 0.01225 -0.002
0.0014688 -0.0180062 0.0246015
0.00075 -0.01905 0.024
-0.0142641 -0.00844866 0.0215605
-0.014557 -0.0105 0.0215
-0.0145639 -0.00932946 0.0209242
-0.015 -0.00925 0.019357
-0.0148905 -0.00909646 0.0195202
-0.015059 -0.008 0.0175
0.000558401 -0.0161451 0.0164106
-0.001 -0.016866 0.016
-0.0149804 -0.0044514 0.016358
-0.015556 -0.0065 0.015
-0.000614232 -0.016491 0.0157959
-0.00125 -0.015578 0.01375
-0.0154179 -0.00551834 0.0146959
-0.015556 -0.00475 0.01275
0.00095992 -0.0137583 0.0114199
-0.00075 -0.01456 0.0115
-0.0155187 -0.00467745 0.0129954
-0.015556 -0.00275 0.01075
-0.015547 -0.00265259 0.0109389
-0.015556 -0.00075 0.0095
-0.0155539 -0.000646621 0.00949533
-0.015556 0.00125 0.00825
0.00347111 -0.0117963 0.00979513
0.0025 -0.012353 0.0075
0.00527158 -0.00933486 0.00613532
0.00425 -0.010528 0.00625
-0.0137996 0.00882068 0.00586434
-0.014364 0.008 0.005
-0.0107376 0.0120101 0.00486433
-0.01175 0.01155 0.00375
-0.0100167 0.0124203 0.00431837
-0.00975 0.012572 0.0025
0.00720907 -0.00482095 0.00243495
0.006058 -0.006 0.00125
-0.00583583 0.0134824 0.00181417
-0.008 0.01306 0.0005
-0.00643433 0.0133681 0.000745668
-0.0055 0.013557 -0.0005
0.00892847 0.00273171 -0.000343119
0.00825 0.0015 -0.001379
0.00106739 0.0140895 3.43174e-05
0.00125 0.014556 -0.002
0.000850696 0.0143635 -0.00148573
-0.00125 0.014081 -0.00225
0.00857952 0.00592578 -0.00133158
0.00775 0.00775 -0.002529
0.00723835 0.0105528 -0.000991822
0.006858 0.00975 -0.003
0.000839077 -0.0188831 0.0243724
0 -0.019871 0.0255
0.000637075 -0.0190495 0.0239747
-0.000432 -0.01975 0.02225
1.55381e-05 -0.0193019 0.0221619
0.00025 -0.01875 0.020457
1.16953e-05 -0.0188723 0.0206783
-0.001 -0.018559 0.01875
-0.00100912 -0.0168369 0.0159822
-0.00225 -0.01781 0.0165
-0.00206292 -0.0172315 0.0158443
-0.003 -0.016856 0.01475
-0.00274699 -0.0168375 0.0148254
-0.003 -0.016 0.013178
-0.00286928 -0.015991 0.0130907
-0.00275 -0.01525 0.011454
-6.28257e-05 -0.0141668 0.0109144
-0.00025 -0.014072 0.0095
0.00231307 -0.0125019 0.00812083
0.001 -0.013362 0.00775
-0.0152454 0.00376356 0.0090048
-0.015556 0.00325 0.007
-0.0154023 0.00366866 0.0074013
-0.015057 0.00525 0.006
0.00240466 -0.0123445 0.00749
0.0025 -0.01175 0.005167
0.00519333 -0.0091023 0.00501904
0.00375 -0.01005 0.004
-0.0116867 0.0114641 0.00398087
-0.01325 0.010049 0.00325
0.00449186 -0.00924274 0.00389265
0.00475 -0.00825 0.002452
-0.0122047 0.0110353 0.00305235
-0.01175 0.01155 0.0015
-0.0116628 0.0115481 0.00177913
-0.01025 0.012529 0.0005
0.00643067 -0.00540852 0.00132494
0.0065 -0.004049 -0.0005
0.00810319 -0.00104712 7.75501e-05
0.00725 -0.001546 -0.00125
0.00751914 -0.00119486 -0.00103156
0.007527 0 -0.00225
0.00839819 0.00207756 -0.00129223
0.008 0.00325 -0.002757
0.00802721 0.00632031 -0.00232191
0.007555 0.00525 -0.0035
0.00523328 0.0125605 -0.00195612
0.004529 0.01275 -0.00375
0.00447009 0.0128822 -0.00330065
0.00275 0.01406 -0.004
0.00658556 0.0102227 -0.00293804
0.005559 0.01075 -0.0045
-0.0145864 -0.0105103 0.021568
-0.01475 -0.0135 0.023425
-0.00041035 -0.0193793 0.0212431
-0.0015 -0.020192 0.021
-0.0147574 -0.0117849 0.0215046
-0.015057 -0.0125 0.01975
-0.00131719 -0.0188277 0.0191285
-0.003 -0.01925 0.018449
-0.0151305 -0.00927858 0.0183081
-0.015555 -0.011 0.0175
-0.00249952 -0.0176435 0.0162355
-0.0045 -0.018067 0.01625
-0.0151479 -0.00852022 0.0174382
-0.015556 -0.00925 0.0155
-0.00341696 -0.0166191 0.0141092
-0.005 -0.017025 0.01425
-0.0154572 -0.00893485 0.0153352
-0.015553 -0.00875 0.01325
-0.0155309 -0.00830436 0.0134004
-0.015556 -0.007 0.012
-0.0155426 -0.00443571 0.0114559
-0.015556 -0.0055 0.01075
-0.000479463 -0.0142324 0.00984688
-0.00225 -0.015035 0.00925
-0.0155524 -0.00503764 0.0106256
-0.015556 -0.00425 0.0085
-0.0155528 -0.001507 0.0092831
-0.015556 -0.002 0.0075
-0.0155555 0.000444811 0.00805888
-0.015556 0 0.0065
0.00190949 -0.0123056 0.0060036
0.0005 -0.013055 0.0055
-0.0154653 0.00332201 0.00692176
-0.015556 0.002 0.00475
-0.0151393 0.00508048 0.00577631
-0.015055 0.006 0.004
0.0037403 -0.00997078 0.00383102
0.00225 -0.011041 0.003
-0.0131078 0.0100357 0.00309163
-0.01425 0.008052 0.0025
0.0030069 -0.010267 0.00289045
0.00325 -0.0095 0.001659
0.00600531 -0.0059845 0.00117123
0.00475 -0.007368 0.0005
0.00539213 -0.00636156 0.000474211
0.00525 -0.00575 -0.000551
-0.00768227 0.0131414 0.00028633
-0.00875 0.013047 -0.0015
-0.00793374 0.0130794 -0.00128128
-0.00675 0.013082 -0.00225
-0.00557727 0.0135095 -0.00047867
-0.00425 0.013582 -0.00275
0.00788556 0.00254861 -0.00262162
0.00725 0.00175 -0.003529
-0.00109583 0.0141435 -0.00255658
-0.0025 0.014062 -0.004
0.00770655 0.00729398 -0.00274903
0.006905 0.00725 -0.0045
0.00267282 0.0139162 -0.00404216
0.001 0.014556 -0.00475
0.00686329 0.00768056 -0.00428977
0.006069 0.00875 -0.00525
-5.34492e-05 -0.0198323 0.0252542
-0.002 -0.0215 0.025919
-0.00153283 -0.0210631 0.0250821
-0.002 -0.021369 0.0235
-0.0148811 -0.0133176 0.0220596
-0.015057 -0.01425 0.0215
-0.00273613 -0.0195101 0.0189764
-0.0035 -0.020541 0.01975
-0.00360556 -0.0199896 0.0191342
-0.00475 -0.01975 0.018435
-0.00443989 -0.0180989 0.0162465
-0.006 -0.018544 0.01625
-0.0153725 -0.0107102 0.0174382
-0.01507 -0.01225 0.0155
-0.00571877 -0.0182777 0.0160283
-0.007 -0.0175 0.014673
-0.015139 -0.0115305 0.0154752
-0.015057 -0.011 0.01375
-0.00471258 -0.0167821 0.014002
-0.006 -0.016073 0.01275
-0.0149466 -0.0110297 0.0137421
-0.014569 -0.0105 0.01175
-0.0030622 -0.0154931 0.0117973
-0.00475 -0.015557 0.01075
-0.0154728 -0.00759718 0.0121331
-0.01501 -0.00875 0.01025
-0.0151345 -0.00798332 0.0104219
-0.015058 -0.007 0.00925
-0.00224507 -0.0148533 0.00904325
-0.00375 -0.015074 0.008
-0.00133146 -0.0144857 0.00877114
-0.001 -0.01425 0.007153
-0.0155551 -0.00211189 0.00780644
-0.015556 -0.00375 0.00625
-0.0155557 -0.0026658 0.00646806
-0.015556 -0.00175 0.00525
-0.0155559 -0.00175227 0.00543888
-0.015556 0 0.00425
-0.0152223 0.00507575 0.00442842
-0.015556 0.00375 0.0035
-0.0151275 0.00568045 0.00388439
-0.01525 0.0055 0.002348
0.00275221 -0.0100353 0.00193854
0.00175 -0.010535 0.00125
-0.0135131 0.00940493 0.00217665
-0.01325 0.01005 0.0005
0.00471337 -0.00725474 0.000375577
0.00325 -0.0085 -0.000339
-0.0111221 0.011941 0.000489323
-0.01175 0.01155 -0.001
0.00620336 -0.00450156 -0.000495735
0.0055 -0.0045 -0.002049
0.00575991 -0.00422728 -0.00176276
0.006 -0.002549 -0.003
0.00738334 -0.000427613 -0.00213102
0.006516 -0.00075 -0.00375
-0.00156067 0.0142264 -0.0036781
-0.00075 0.014556 -0.0045
0.00736616 0.00221063 -0.00348995
0.006854 0.0035 -0.005
0.0068932 0.00368055 -0.00477759
0.006555 0.00525 -0.0055
0.00550886 0.0108334 -0.00446113
0.0045 0.0115 -0.0057
LINES 599 1797
2 2 1
2 6 2
2 4 3
2 12 4
2 8 5
2 14 6
2 6 7
2 4 8
2 10 9
2 8 10
2 16 11
2 2 12
2 20 13
2 32 14
2 28 15
2 18 16
2 26 17
2 10 18
2 34 19
2 12 20
2 36 21
2 16 22
2 22 23
2 18 24
2 30 25
2 22 26
2 40 27
2 14 28
2 42 29
2 44 30
2 38 31
2 0 32
2 48 33
2 24 34
2 52 35
2 20 36
2 66 37
2 30 38
2 46 39
2 26 40
2 60 41
2 28 42
2 64 43
2 24 44
2 54 45
2 56 46
2 82 47
2 32 48
2 58 49
2 48 50
2 50 51
2 34 52
2 78 53
2 44 54
2 80 55
2 38 56
2 68 57
2 50 58
2 72 59
2 40 60
2 70 61
2 60 62
2 90 63
2 42 64
2 76 65
2 36 66
2 66 67
2 56 68
2 114 69
2 62 70
2 98 71
2 74 72
2 104 73
2 58 74
2 88 75
2 64 76
2 92 77
2 52 78
2 108 79
2 54 80
2 96 81
2 46 82
2 94 83
2 86 84
2 100 85
2 72 86
2 86 87
2 74 88
2 122 89
2 62 90
2 142 91
2 76 92
2 110 93
2 82 94
2 130 95
2 80 96
2 112 97
2 102 98
2 176 99
2 84 100
2 134 101
2 70 102
2 102 103
2 84 104
2 104 105
2 90 106
2 120 107
2 78 108
2 166 109
2 92 110
2 146 111
2 96 112
2 152 113
2 68 114
2 132 115
2 98 116
2 156 117
2 100 118
2 138 119
2 106 120
2 140 121
2 88 122
2 162 123
2 122 124
2 164 125
2 108 126
2 128 127
2 126 128
2 148 129
2 94 130
2 150 131
2 114 132
2 200 133
2 118 134
2 154 135
2 134 136
2 180 137
2 118 138
2 160 139
2 120 140
2 186 141
2 106 142
2 142 143
2 110 144
2 216 145
2 144 146
2 170 147
2 168 148
2 172 149
2 130 150
2 196 151
2 112 152
2 198 153
2 136 154
2 202 155
2 116 156
2 158 157
2 178 158
2 208 159
2 138 160
2 184 161
2 124 162
2 212 163
2 124 164
2 164 165
2 126 166
2 190 167
2 128 168
2 194 169
2 192 170
2 170 171
2 148 172
2 222 173
2 152 174
2 174 175
2 116 176
2 228 177
2 156 178
2 204 179
2 136 180
2 234 181
2 180 182
2 182 183
2 160 184
2 268 185
2 140 186
2 240 187
2 186 188
2 242 189
2 166 190
2 218 191
2 146 192
2 246 193
2 168 194
2 250 195
2 150 196
2 224 197
2 174 198
2 226 199
2 132 200
2 256 201
2 154 202
2 230 203
2 178 204
2 260 205
2 158 206
2 264 207
2 206 208
2 238 209
2 184 210
2 210 211
2 162 212
2 272 213
2 212 214
2 274 215
2 144 216
2 276 217
2 190 218
2 218 219
2 194 220
2 280 221
2 172 222
2 252 223
2 196 224
2 322 225
2 198 226
2 254 227
2 176 228
2 258 229
2 202 230
2 294 231
2 230 232
2 298 233
2 182 234
2 302 235
2 234 236
2 236 237
2 208 238
2 238 239
2 188 240
2 308 241
2 188 242
2 244 243
2 242 244
2 278 245
2 192 246
2 248 247
2 246 248
2 284 249
2 220 250
2 250 251
2 222 252
2 288 253
2 226 254
2 292 255
2 200 256
2 290 257
2 228 258
2 330 259
2 204 260
2 334 261
2 260 262
2 262 263
2 206 264
2 266 265
2 264 266
2 340 267
2 210 268
2 270 269
2 268 270
2 346 271
2 214 272
2 272 273
2 214 274
2 350 275
2 216 276
2 314 277
2 312 278
2 356 279
2 220 280
2 358 281
2 280 282
2 360 283
2 318 284
2 364 285
2 252 286
2 326 287
2 286 288
2 368 289
2 256 290
2 366 291
2 254 292
2 328 293
2 232 294
2 374 295
2 294 296
2 296 297
2 232 298
2 300 299
2 298 300
2 382 301
2 236 302
2 304 303
2 302 304
2 306 305
2 304 306
2 306 307
2 240 308
2 396 309
2 308 310
2 310 311
2 244 312
2 354 313
2 276 314
2 316 315
2 314 316
2 404 317
2 248 318
2 318 319
2 284 320
2 408 321
2 224 322
2 324 323
2 322 324
2 414 325
2 286 326
2 412 327
2 292 328
2 420 329
2 258 330
2 372 331
2 330 332
2 332 333
2 262 334
2 336 335
2 334 336
2 338 337
2 336 338
2 380 339
2 266 340
2 342 341
2 340 342
2 344 343
2 342 344
2 388 345
2 270 346
2 442 347
2 346 348
2 348 349
2 274 350
2 352 351
2 350 352
2 400 353
2 312 354
2 448 355
2 278 356
2 356 357
2 282 358
2 406 359
2 282 360
2 362 361
2 360 362
2 460 363
2 320 364
2 364 365
2 290 366
2 370 367
2 288 368
2 418 369
2 366 370
2 468 371
2 332 372
2 424 373
2 296 374
2 474 375
2 374 376
2 378 377
2 376 378
2 486 379
2 338 380
2 430 381
2 300 382
2 386 383
2 380 384
2 384 385
2 382 386
2 390 387
2 344 388
2 438 389
2 386 390
2 392 391
2 494 392
2 394 393
2 500 394
2 502 395
2 310 396
2 446 397
2 354 398
2 398 399
2 352 400
2 400 401
2 316 402
2 450 403
2 402 404
2 404 405
2 358 406
2 516 407
2 320 408
2 520 409
2 408 410
2 524 411
2 326 412
2 464 413
2 324 414
2 416 415
2 414 416
2 528 417
2 368 418
2 530 419
2 328 420
2 472 421
2 372 422
2 536 423
2 422 424
2 426 425
2 424 426
2 428 427
2 476 428
2 480 429
2 384 430
2 484 431
2 430 432
2 434 433
2 432 434
2 436 435
2 488 436
2 558 437
2 388 438
2 496 439
2 396 440
2 440 441
2 348 442
2 506 443
2 442 444
2 508 445
2 440 446
2 504 447
2 398 448
2 510 449
2 402 450
2 512 451
2 448 452
2 452 453
2 450 454
2 456 455
2 454 456
2 584 457
2 406 458
2 586 459
2 362 460
2 462 461
2 460 462
2 590 463
2 412 464
2 526 465
2 418 466
2 466 467
2 370 468
2 470 469
2 468 470
2 532 471
2 420 472
2 598 473
2 376 474
2 540 475
2 426 476
2 476 477
2 474 478
2 478 479
2 428 480
2 542 481
2 378 482
2 548 483
2 432 484
2 546 485
2 482 486
2 490 487
2 434 488
2 554 489
2 486 490
2 492 491
2 490 492
2 560 493
2 390 494
2 498 495
2 438 496
2 564 497
2 494 498
2 498 499
2 392 500
2 568 501
2 394 502
2 502 503
2 446 504
2 504 505
2 444 506
2 506 507
2 444 508
2 576 509
2 452 510
2 514 511
2 454 512
2 580 513
2 510 514
2 578 515
2 458 516
2 582 517
2 516 518
2 518 519
2 410 520
2 522 521
2 520 522
2 522 523
2 410 524
2 524 525
2 464 526
2 594 527
2 416 528
2 592 529
2 466 530
2 534 531
2 470 532
2 532 533
2 530 534
2 534 535
2 422 536
2 538 537
2 536 538
2 538 539
2 478 540
2 540 541
2 480 542
2 544 543
2 542 544
2 544 545
2 484 546
2 550 547
2 482 548
2 552 549
2 546 550
2 550 551
2 548 552
2 556 553
2 488 554
2 554 555
2 552 556
2 556 557
2 436 558
2 558 559
2 492 560
2 562 561
2 560 562
2 562 563
2 566 564
2 564 565
2 496 566
2 566 567
2 500 568
2 570 569
2 568 570
2 572 571
2 570 572
2 572 573
2 508 574
2 574 575
2 574 576
2 576 577
2 514 578
2 578 579
2 512 580
2 580 581
2 518 582
2 582 583
2 456 584
2 584 585
2 458 586
2 588 587
2 586 588
2 588 589
2 462 590
2 590 591
2 528 592
2 592 593
2 526 594
2 596 595
2 594 596
2 596 597
2 472 598
2 598 599
CELL_DATA 599
SCALARS radius float
LOOKUP_TABLE default
0.124639
0.986977
0.080469
0.980965
0.100345
0.987377
0.105366
0.980784
0.0918247
0.980434
0.0847284
0.986314
0.112119
1.03375
0.092021
0.785205
0.113234
0.980165
0.0564019
0.249485
0.100866
0.784876
0.130148
0.770572
0.0827553
0.783682
0.0899646
0.521833
0.0907194
0.531297
0.0830602
1.13441
0.0563426
0.614717
0.0946568
0.241696
0.147681
0.530627
0.0853597
0.782893
0.102215
0.520878
0.0781415
0.608459
0.11284
0.433072
0.119333
0.708172
0.0738022
0.708054
0.12261
0.614558
0.0855351
0.422263
0.105192
0.529948
0.117252
0.706826
0.0925725
0.782497
0.0742875
0.781915
0.0681313
0.519959
0.117015
0.235693
0.214521
0.407383
0.107678
0.691345
0.0736551
0.67423
0.072532
0.706558
0.0864231
0.51937
0.118058
0.613809
0.100757
0.41956
0.126579
0.431964
0.114917
0.672632
0.0844782
0.673648
0.111333
0.358914
0.0653108
0.528507
0.110855
0.517382
0.0954251
0.428906
0.145481
0.417344
0.090813
0.689304
0.104593
0.670033
0.0726991
0.691059
0.135874
0.152044
0.14633
0.528129
0.0973092
0.613255
0.10319
0.515325
0.0838586
0.413426
0.09072
0.404119
0.125112
0.689023
0.0802433
0.669585
0.0780698
0.520726
0.135055
0.357236
0.0891985
0.356507
0.111803
0.612347
0.0842479
0.598763
0.0831005
0.426139
0.117368
0.401555
0.105716
0.616743
0.0947805
0.616406
0.088478
0.403332
0.102878
0.519591
0.071814
0.182797
0.16805
0.514232
0.0872526
0.417879
0.0958355
0.481029
0.0787406
0.42041
0.140232
0.41196
0.0945634
0.58774
0.0871002
0.603875
0.10831
0.453357
0.104971
0.402354
0.135253
0.33896
0.086804
0.185337
0.170641
0.246312
0.126182
0.598207
0.106934
0.185126
0.176135
0.480201
0.153877
0.410488
0.167297
0.474603
0.0850676
0.603403
0.119828
0.314744
0.0997969
0.312396
0.144758
0.4001
0.0931917
0.516531
0.0884134
0.516068
0.127071
0.24012
0.169378
0.41675
0.0867563
0.468397
0.110555
0.417339
0.138412
0.401008
0.14862
0.397465
0.124599
0.586917
0.106945
0.502013
0.111838
0.451287
0.084599
0.232154
0.127877
0.39488
0.137415
0.336889
0.109598
0.334957
0.124225
0.397927
0.0997808
0.227894
0.191078
0.466531
0.0690601
0.479495
0.121924
0.411993
0.125945
0.399248
0.104809
0.472904
0.116392
0.586277
0.0776541
0.585088
0.11644
0.301671
0.09513
0.297985
0.169549
0.224768
0.210025
0.362501
0.101653
0.44782
0.11877
0.444384
0.0980041
0.404199
0.134712
0.402862
0.0789399
0.185179
0.170984
0.474153
0.094049
0.392261
0.180656
0.394956
0.160839
0.471984
0.126099
0.499727
0.108367
0.497853
0.148629
0.429801
0.130419
0.428706
0.119512
0.389253
0.123373
0.387465
0.115349
0.197674
0.185738
0.310228
0.123286
0.396523
0.0794718
0.269328
0.172376
0.456596
0.103667
0.456069
0.115636
0.388631
0.142434
0.47145
0.130553
0.375986
0.152569
0.390779
0.143645
0.389751
0.173107
0.473308
0.120044
0.47261
0.118273
0.455106
0.12427
0.452551
0.120945
0.278434
0.151255
0.274682
0.136809
0.258454
0.244987
0.36074
0.137445
0.358029
0.160057
0.441537
0.121094
0.394406
0.146036
0.393327
0.124735
0.397778
0.161889
0.387542
0.0932905
0.406718
0.171746
0.402652
0.1461
0.372377
0.14855
0.376358
0.154939
0.469613
0.14193
0.466563
0.171729
0.493398
0.119983
0.491649
0.106374
0.489256
0.151078
0.424644
0.150963
0.421465
0.103037
0.414908
0.19125
0.383249
0.110735
0.379734
0.163223
0.30344
0.184321
0.296499
0.193675
0.405231
0.14392
0.264931
0.237952
0.389108
0.0805214
0.330036
0.136925
0.325235
0.16331
0.232011
0.212527
0.381477
0.175724
0.374014
0.149812
0.374563
0.153163
0.458675
0.0893276
0.470128
0.0752552
0.467504
0.0976334
0.431352
0.127738
0.487574
0.069976
0.449405
0.135446
0.48269
0.195474
0.446466
0.100502
0.412778
0.186719
0.442272
0.106629
0.420418
0.104744
0.300858
0.214152
0.347032
0.107015
0.401594
0.179309
0.27055
0.23232
0.386499
0.105498
0.204856
0.188109
0.38664
0.0946851
0.357564
0.146191
0.355435
0.108991
0.36695
0.148103
0.391955
0.178315
0.385068
0.18151
0.365352
0.169391
0.363732
0.185395
0.454099
0.119943
0.413231
0.147603
0.411835
0.138772
0.391621
0.177377
0.471758
0.140781
0.471244
0.129038
0.40519
0.135422
0.341113
0.215491
0.398613
0.165095
0.339691
0.203625
0.369403
0.104877
0.366056
0.132888
0.313305
0.23374
0.389306
0.129471
0.366276
0.118872
0.382636
0.209748
0.363335
0.129975
0.289093
0.208888
0.385472
0.160232
0.316935
0.157079
0.301767
0.183393
0.358648
0.170678
0.356755
0.207655
0.3612
0.173354
0.351776
0.174478
0.354108
0.160534
0.279857
0.202464
0.405416
0.187323
0.278031
0.183693
0.385724
0.211479
0.429679
0.120512
0.33657
0.107919
0.366881
0.128289
0.400779
0.183762
0.361645
0.153116
0.356181
0.182688
0.440535
0.138508
0.38446
0.190092
0.223641
0.204309
0.418119
0.1423
0.296565
0.253352
0.309087
0.255903
0.224534
0.216632
0.335401
0.17859
0.360355
0.224004
0.287662
0.218771
0.354696
0.238024
0.306488
0.140577
0.303445
0.194492
0.302739
0.212674
0.290921
0.246636
0.257918
0.25126
0.350024
0.1678
0.371875
0.276866
0.331567
0.207976
0.337143
0.320786
0.316122
0.282709
0.284694
0.206689
0.277413
0.232199
0.248221
0.191242
0.372792
0.258705
0.348567
0.292541
0.328151
0.202504
0.310537
0.168287
0.324213
0.295393
0.304366
0.133528
0.291163
0.264375
0.286148
0.276108
0.333844
0.300743
0.346488
0.237962
0.328657
0.280311
0.328576
0.30583
0.374031
0.256385
0.357953
0.216111
0.350295
0.166493
0.320397
0.30465
0.328298
0.230135
0.28519
0.259622
0.321992
0.270981
0.28073
0.226717
0.274058
0.261128
0.280056
0.234229
0.305409
0.181795
0.289937
0.263833
0.286856
0.259309
0.356864
0.289344
0.335938
0.18951
0.321359
0.29769
0.336287
0.323622
