# vtk DataFile Version 3.0
Tree
ASCII
DATASET POLYDATA
POINTS 800 float
-0.004 0.02 0.0265
0.0065 0.01 0.026302
0.00545 0.0108441 0.0238453
0.00725 0.009063 0.02275
0.00692542 0.00908008 0.0230807
0.008403 0.00575 0.023
0.0029328 0.0142516 0.0226018
0.003879 0.01375 0.0215
0.00823094 0.00654922 0.0223194
0.009055 0.00575 0.0205
0.00882802 0.00558079 0.0211662
0.009023 0.003 0.02175
0.00634946 0.00994779 0.022672
0.0065 0.010868 0.01825
0.000742528 0.0157508 0.0219865
0.00125 0.015081 0.02025
0.00879214 0.00322823 0.0221174
0.00775 -0.000347 0.0255
0.00907469 0.00424535 0.0207378
0.00975 0.0035 0.018549
0.00555387 0.011126 0.0187513
0.00325 0.012578 0.01625
0.00861619 0.00160627 0.0223363
0.009057 0.0005 0.02
0.00953659 0.00415624 0.0188181
0.009528 0.00675 0.01625
0.00790804 -0.000411055 0.0241107
0.007572 -0.00225 0.02325
0.000582385 0.0154791 0.0206787
-0.00225 0.01625 0.018971
0.00924222 0.00658026 0.0164463
0.0085 0.008367 0.01475
-0.00370635 0.0178665 0.0240076
-0.005 0.017556 0.0235
0.00965909 0.00350218 0.0185301
0.01 0.00075 0.01728
0.00290441 0.0124877 0.0163603
4.1e-05 0.0135 0.0145
0.0082804 0.0081909 0.014963
0.0055 0.010555 0.013
0.00779265 -0.00178848 0.0231016
0.0085 -0.0025 0.02053
-0.00185023 0.0157343 0.018619
-0.00325 0.015069 0.01625
0.00954707 0.00559954 0.0166742
0.010852 0.00425 0.0135
0.0054337 0.0103222 0.0131911
0.00288 0.01175 0.012
-0.00496722 0.0174288 0.0235376
-0.008 0.015871 0.0225
-0.00646951 0.0165492 0.021852
-0.006 0.016513 0.019
0.010073 0.00127052 0.0168716
0.010553 0.00025 0.01475
0.0103003 0.00522153 0.0138418
0.01 0.006563 0.012
0.00706321 0.00926997 0.0130298
0.008 0.009 0.01059
-0.00787545 0.0155472 0.0223951
-0.010062 0.01225 0.023
0.00817686 -0.00276289 0.0212551
0.007556 -0.00575 0.02075
0.00803579 -0.00437413 0.0200716
0.00856 -0.00425 0.01775
-0.00291405 0.0149462 0.0161886
-0.00325 0.01406 0.014
0.000436738 0.0131316 0.0141065
-0.001 0.013052 0.0115
0.00714517 0.00950215 0.0110104
0.00575 0.010562 0.01
0.0075475 -0.00558851 0.0208818
0.00657 -0.00725 0.023
-0.00971419 0.0124113 0.0222948
-0.010694 0.01 0.021
-0.00870872 0.0142653 0.0214124
-0.00875 0.014553 0.019
-0.00350679 0.0147223 0.0156062
-0.0065 0.015056 0.01625
0.0105784 0.000634926 0.0146292
0.011055 0.00075 0.0125
0.0102925 0.00587698 0.0122523
0.01151 0.00425 0.01025
0.00366649 0.0114367 0.0115159
0.0035 0.011855 0.00925
-0.0108245 0.0101587 0.021819
-0.012 0.0085 0.022815
-0.0102484 0.0116453 0.0215
-0.010353 0.01225 0.02
-0.00904837 0.0141191 0.019159
-0.009851 0.01325 0.0175
0.00861352 -0.00415965 0.0178401
0.0095 -0.00375 0.014755
-0.00547217 0.0145362 0.015064
-0.00625 0.013581 0.01275
0.00315995 0.0118403 0.00989678
0.00075 0.012557 0.0095
0.0109076 0.00554063 0.0103579
0.01075 0.007 0.008347
0.00660308 -0.00741832 0.0229522
0.005571 -0.00975 0.02525
-0.0117208 0.00842285 0.022432
-0.012273 0.00475 0.022
0.00709199 -0.00698927 0.0211737
0.007 -0.0085 0.019558
-0.0108832 0.00997595 0.0209977
-0.01157 0.00925 0.018
0.00881929 -0.00458109 0.0158808
0.008082 -0.00625 0.01525
0.0108136 0.00032707 0.0130399
0.01025 -0.002049 0.01225
-0.00572499 0.0138348 0.0129898
-0.004 0.013552 0.01
0.0105778 0.00708711 0.00859245
0.01 0.008562 0.0075
0.0063717 0.0103372 0.00985826
0.0075 0.011 0.007039
0.00611403 -0.00895733 0.0233509
0.006036 -0.01025 0.02175
-0.0119982 0.00665513 0.0209829
-0.012 0.00675 0.01928
0.00816459 -0.00605125 0.0156653
0.00725 -0.008049 0.017
-0.00983015 0.0131768 0.0176329
-0.01125 0.011051 0.01525
-0.0103492 0.0119899 0.0152619
-0.00925 0.012582 0.01325
0.0106404 -0.000824978 0.0118728
0.011 -0.000393 0.01
0.010911 -0.000209614 0.0102256
0.011058 0.00175 0.008
0.00227398 0.0122715 0.00888871
0.00275 0.012561 0.00675
0.00659921 0.0111402 0.0074247
0.00525 0.012069 0.006
-0.0123356 0.00477438 0.021784
-0.01325 0.00125 0.022419
-0.0127724 0.00220012 0.0210597
-0.01257 0.00175 0.0195
-0.0121201 0.00654938 0.0194556
-0.012861 0.0055 0.01725
0.00751523 -0.00747133 0.0155629
0.00725 -0.008053 0.0145
0.00924621 -0.00419517 0.0147083
0.009 -0.005327 0.01225
-0.00566999 0.0135274 0.0112659
-0.0075 0.01306 0.01025
-0.0041844 0.0135296 0.00977705
-0.00275 0.0135 0.007757
0.0110107 0.00182292 0.00822221
0.011057 0.00425 0.00625
0.00230647 0.0125707 0.00715245
0.0005 0.013189 0.0055
0.0100908 0.0083301 0.00740996
0.009534 0.00975 0.00475
-0.0130902 0.00122653 0.0218883
-0.01303 -0.00075 0.02125
0.00599211 -0.010041 0.0217622
0.005572 -0.01125 0.01875
0.00580751 -0.0107498 0.0188429
0.006053 -0.0105 0.0165
-0.0126804 0.00616917 0.0175655
-0.013 0.008256 0.01525
-0.0111188 0.0111924 0.0149382
-0.01205 0.01025 0.013
-0.00965179 0.0123483 0.0134432
-0.01 0.012055 0.01075
0.0103166 -0.00182373 0.0116842
0.00975 -0.0035 0.009152
0.0108278 0.00014949 0.00874968
0.0105 -0.00125 0.007244
-0.00288426 0.0135231 0.00760985
-0.002 0.013557 0.0055
0.0109056 0.0042275 0.00623333
0.010556 0.00625 0.0045
0.00923811 0.0098631 0.00517839
0.008 0.011371 0.004
0.00550706 -0.010061 0.0247372
0.004067 -0.0135 0.02525
0.00558525 -0.0111103 0.0207546
0.00475 -0.01305 0.0215
-0.0127607 0.00159153 0.0197811
-0.013542 -0.00025 0.0185
-0.0132962 0.00110929 0.01842
-0.013557 0.0025 0.01675
-0.013125 0.00643959 0.0161062
-0.013903 0.00475 0.015
0.00718161 -0.00810553 0.014577
0.00625 -0.00955 0.013
0.00667654 -0.00891877 0.0131458
0.0075 -0.007827 0.011
0.00953599 -0.00377026 0.00978718
0.0085 -0.005902 0.00925
-0.00434672 0.0135349 0.00844597
-0.00625 0.013556 0.0075
0.0105959 -0.000627138 0.00740637
0.010553 0.0005 0.0055
0.00149355 0.0130888 0.00547659
0.0025 0.013361 0.004
0.00941333 0.00956912 0.00475848
0.00975 0.008046 0.00325
0.00564929 0.0119486 0.00596859
0.0055 0.013 0.003028
-0.0131821 -0.000601336 0.0215454
-0.014 -0.0035 0.022129
0.00481046 -0.0127287 0.0206911
0.00425 -0.013565 0.01925
0.00562924 -0.0111272 0.0171323
0.00475 -0.012526 0.01675
0.00586117 -0.0107212 0.0163907
0.0055 -0.01087 0.0145
-0.013696 0.00585067 0.014864
-0.014053 0.00675 0.01325
-0.012158 0.01015 0.0132002
-0.0135 0.008816 0.0115
-0.0126506 0.00978441 0.011581
-0.012 0.01075 0.009846
-0.0071809 0.013181 0.0102093
-0.00875 0.013023 0.008
0.00897152 -0.00477744 0.0086519
0.009 -0.004322 0.0065
0.0102873 -0.000560684 0.00597004
0.009555 -0.002 0.005
0.010716 0.0042992 0.005122
0.010528 0.00275 0.00375
0.00176274 0.0132932 0.00437681
-0.00025 0.013557 0.003
0.00939167 0.00908052 0.00345271
0.008855 0.01 0.00225
0.00394899 -0.0136178 0.0251423
0.003066 -0.0155 0.02525
-0.0137631 -0.00315432 0.0215328
-0.013855 -0.00475 0.0205
-0.01386 -0.00414417 0.0204639
-0.014068 -0.0035 0.01825
-0.0136098 -2.29916e-05 0.0181677
-0.0145 -0.00125 0.016281
-0.0142675 -0.000603708 0.0165761
-0.014556 0.001 0.01475
0.00538751 -0.0109718 0.0148005
0.004 -0.011884 0.013
0.00625929 -0.00946305 0.012806
0.00525 -0.010507 0.01125
0.00695237 -0.00843147 0.011095
0.00625 -0.00905 0.0095
0.00657964 -0.00866992 0.00968565
0.00725 -0.007528 0.00775
-0.00621321 0.0134157 0.00730703
-0.00775 0.013073 0.006
-0.00655823 0.0133182 0.00599825
-0.00525 0.013557 0.0045
0.0103688 0.000213615 0.00529385
0.00975 0.0005 0.003121
0.010512 0.00344828 0.00387544
0.010051 0.00475 0.002
0.0088158 0.00999674 0.00246973
0.00754 0.01175 0.0015
0.00497583 0.0129073 0.0032359
0.0035 0.01357 0.00125
0.00325944 -0.0152798 0.0247342
0.003 -0.016327 0.0235
0.00426132 -0.013617 0.0198491
0.00325 -0.015549 0.02075
0.00343362 -0.0147961 0.0197617
0.00275 -0.015068 0.01825
0.00461136 -0.0124911 0.0167071
0.00325 -0.014 0.01616
0.00343673 -0.0134979 0.015731
0.00275 -0.0135 0.014159
-0.0139657 0.00487218 0.0146665
-0.01475 0.0035 0.01288
-0.0145618 0.00438932 0.0128907
-0.01475 0.0055 0.011387
-0.0133757 0.00890009 0.0112769
-0.01425 0.007549 0.00975
-0.0123507 0.010321 0.010091
-0.01325 0.009548 0.00825
-0.00900342 0.0127361 0.00825023
-0.011 0.011863 0.007
0.00710548 -0.00756413 0.00773941
0.0075 -0.006352 0.0055
0.00949394 -0.00204958 0.00503041
0.0085 -0.003822 0.004
0.00903757 -0.00247155 0.00399217
0.009 -0.001531 0.0025
-0.00532322 0.0134925 0.00455453
-0.00325 0.013557 0.002
0.0100442 0.00356345 0.00237082
0.0095 0.002 0.001181
0.00991169 0.00470963 0.00189012
0.009069 0.00675 0.0005
0.00463615 0.0131983 0.00160549
0.005871 0.013 0.00025
0.00824912 0.0102916 0.00139789
0.00825 0.009046 -0.00025
-0.0138565 -0.00456825 0.0204892
-0.014084 -0.00825 0.02225
-0.0142825 -0.00645274 0.0202522
-0.014544 -0.00675 0.0195
-0.014209 -0.00424624 0.0185713
-0.01475 -0.005613 0.0175
-0.0146589 -0.004654 0.0174228
-0.015043 -0.00375 0.016
-0.0144986 -0.0011638 0.0160999
-0.015071 -0.00225 0.01425
-0.0150537 -0.00149931 0.014293
-0.0155 -0.0005 0.012818
-0.0153816 -0.000489814 0.0130317
-0.015515 0.0015 0.0115
0.00524251 -0.0104412 0.0115301
0.00325 -0.01205 0.01025
0.00445783 -0.0109534 0.00999124
0.00475 -0.01055 0.00875
0.00650336 -0.00839003 0.00822517
0.005556 -0.00925 0.00725
-0.0108708 0.0118309 0.00695762
-0.01225 0.011 0.005777
-0.0110863 0.0117103 0.00629478
-0.00975 0.012572 0.0045
-0.00596142 0.0134536 0.0047617
-0.0075 0.013551 0.00325
-0.00490123 0.0135383 0.00263581
-0.00575 0.013557 0.00175
2.30585e-05 0.0136334 0.00270043
-0.001 0.014056 0.00075
2.73787e-05 0.0139208 0.00116414
0.0015 0.014056 -0
0.00957694 0.00263213 0.00126117
0.009 0.0035 -0.000541
0.00790616 0.0099917 6.73258e-05
0.007023 0.011 -0.001
0.0028808 -0.0161795 0.024212
0.0015 -0.017891 0.0255
0.00205876 -0.0172369 0.0240048
0.001523 -0.018 0.022
0.00308958 -0.0155529 0.0203432
0.00175 -0.017029 0.01975
0.00204169 -0.0165564 0.0196177
0.00125 -0.0165 0.017661
0.00137 -0.0162495 0.0175955
0.001 -0.015557 0.01575
0.00269042 -0.0136394 0.0145333
0.001 -0.0145 0.013801
0.0016157 -0.0140135 0.0135344
0.00175 -0.0135 0.012221
0.0016856 -0.0136036 0.0122997
0.001549 -0.01325 0.01025
-0.0147692 0.00492712 0.0114938
-0.01525 0.00355 0.00925
-0.0150744 0.00449651 0.00950852
-0.015035 0.00575 0.00825
-0.0133142 0.00923008 0.00835444
-0.01425 0.00775 0.007045
-0.0137405 0.00867751 0.00710142
-0.0135 0.009371 0.00575
[...]
CELL_DATA 799
SCALARS radius float
LOOKUP_TABLE default
0.115294
1.00604
0.0743329
1.00147
0.092549
1.00634
0.0976537
1.00134
0.0846139
1.00107
0.0778916
1.00553
0.103627
1.05378
0.0852547
0.819921
0.103652
1.00087
0.0518224
0.230589
0.0932267
0.819686
0.119466
0.76711
0.0758992
0.81884
0.0821974
0.53254
0.0837312
0.514478
0.076019
1.16636
0.0523082
0.627249
0.086686
0.223391
0.136496
0.513926
0.0776955
0.818286
0.0931574
0.53181
0.0718441
0.589278
0.103153
0.418438
0.1081
0.746831
0.0682355
0.746745
0.113572
0.627131
0.0780825
0.409064
0.0958805
0.513371
0.106664
0.745869
0.0851785
0.818009
0.0673496
0.817606
0.0617464
0.531118
0.107445
0.217842
0.198273
0.395863
0.0976401
0.743146
0.0663359
0.723232
0.0664792
0.745678
0.0797474
0.530679
0.10804
0.626579
0.0917552
0.406865
0.114918
0.417543
0.103703
0.722155
0.0771933
0.722838
0.102274
0.33119
0.0602659
0.514432
0.100161
0.529207
0.0869616
0.415114
0.130827
0.405083
0.0819593
0.74184
0.093046
0.720421
0.0658871
0.742961
0.122843
0.139356
0.134119
0.514135
0.0876702
0.626174
0.0937208
0.527702
0.0757553
0.401976
0.0814348
0.393264
0.112767
0.741663
0.071662
0.720125
0.0710704
0.50839
0.121302
0.329641
0.0823084
0.328968
0.103167
0.625517
0.0762659
0.61583
0.0747062
0.412946
0.104988
0.391248
0.0947378
0.686788
0.0850293
0.686586
0.0796657
0.367171
0.0936547
0.507519
0.0643244
0.165163
0.151838
0.526913
0.0785415
0.409174
0.0862637
0.478153
0.0702002
0.408521
0.124565
0.400837
0.0836859
0.670099
0.0777086
0.628823
0.0954876
0.464911
0.0916758
0.366281
0.123126
0.312778
0.0800989
0.171021
0.15746
0.223709
0.114603
0.61544
0.0958846
0.166636
0.158543
0.477544
0.1367
0.399714
0.148501
0.542107
0.0739553
0.628513
0.105824
0.283395
0.0898572
0.281281
0.13034
0.364228
0.0848365
0.505199
0.0783867
0.504851
0.112783
0.218086
0.153836
0.408307
0.0774966
0.498378
0.0984525
0.406197
0.122332
0.392761
0.130467
0.3881
0.110339
0.669643
0.0945779
0.528711
0.0981876
0.463564
0.0730025
0.202751
0.111681
0.359477
0.125095
0.310866
0.101132
0.309083
0.11463
0.426874
0.0884646
0.206981
0.173544
0.497192
0.0608231
0.477038
0.107701
0.402254
0.109796
0.39149
0.0910089
0.541192
0.0997692
0.669294
0.0681002
0.668663
0.101728
0.271624
0.0856551
0.268306
0.152662
0.1963
0.183425
0.374551
0.0886674
0.423821
0.104966
0.421142
0.0861633
0.398837
0.11966
0.39786
0.0693372
0.164908
0.152266
0.473266
0.0821477
0.3866
0.15522
0.386209
0.141063
0.540731
0.107056
0.527294
0.0939584
0.526157
0.129583
0.450257
0.110891
0.449617
0.100194
0.354354
0.112312
0.352726
0.105008
0.182405
0.17139
0.286264
0.113763
0.425986
0.0691365
0.236788
0.15155
0.49107
0.089413
0.490759
0.0996023
0.387871
0.123389
0.4714
0.112651
0.349424
0.132013
0.383183
0.124618
0.384911
0.14622
0.588037
0.101824
0.587733
0.102344
0.457297
0.108023
0.455613
0.104637
0.250702
0.13619
0.247324
0.123183
0.232712
0.220586
0.373403
0.115141
0.371729
0.136898
0.418957
0.105607
0.42471
0.126239
0.424099
0.106074
0.394218
0.142803
0.387131
0.0795379
0.398446
0.147967
0.395648
0.123784
0.39598
0.125044
0.376306
0.127763
0.539596
0.11734
0.538188
0.143896
0.523524
0.103026
0.522513
0.0899096
0.521175
0.126056
0.447357
0.124314
0.445675
0.0832103
0.442428
0.151534
0.348889
0.100807
0.345689
0.148589
0.280001
0.170084
0.273596
0.178714
0.392054
0.123071
0.232922
0.209203
0.435563
0.0674893
0.328854
0.115688
0.325779
0.133554
0.200988
0.18411
0.376702
0.150285
0.347904
0.128196
0.3721
0.128597
0.534737
0.0722095
0.586696
0.0602064
0.585672
0.080559
0.515436
0.101879
0.520281
0.0570648
0.45358
0.116059
0.517803
0.16065
0.451716
0.0851393
0.441444
0.143947
0.449148
0.0877791
0.427846
0.0840729
0.241485
0.17189
0.365434
0.082518
0.389483
0.155062
0.249652
0.214374
0.420337
0.0878203
0.174209
0.159968
0.434303
0.0753203
0.368158
0.119415
0.366916
0.0833501
0.392918
0.121579
0.388625
0.147735
0.384393
0.141399
0.341449
0.140311
0.368799
0.144238
0.532847
0.0914288
0.460926
0.115359
0.460335
0.103572
0.453194
0.12334
0.512596
0.109916
0.51236
0.10124
0.405081
0.104098
0.262211
0.165646
0.43541
0.122832
0.361583
0.162085
0.336284
0.0954742
0.333237
0.120974
0.350384
0.165674
0.381111
0.106243
0.410116
0.0915979
0.376784
0.17638
0.408769
0.101628
0.293029
0.153242
0.433759
0.122113
0.320842
0.122728
0.312935
0.131416
0.38865
0.13452
0.335316
0.17567
0.363742
0.140969
0.358303
0.14025
0.363615
0.107698
0.399906
0.108262
0.457907
0.143165
0.39945
0.0800863
0.451384
0.13401
0.514779
0.0929934
0.408228
0.0756874
0.402784
0.0979671
0.402962
0.127265
0.4006
0.11013
0.398637
0.123337
0.448126
0.111113
0.430102
0.12154
0.226844
0.150679
0.426611
0.109281
0.238039
0.203354
0.348851
0.138878
0.204403
0.19721
0.30533
0.162578
0.363433
0.177242
0.350722
0.120595
0.360381
0.175855
0.341037
0.101472
0.339807
0.111409
0.287016
0.164711
0.279953
0.175336
0.295309
0.165964
0.384643
0.126734
0.376977
0.142229
0.318405
0.160781
0.271003
0.257855
0.309051
0.172169
0.376486
0.103079
0.37468
0.11161
0.384792
0.0879642
0.448293
0.121112
0.444265
0.108105
0.405554
0.127551
0.414217
0.0635087
0.404674
0.14398
0.412648
0.0844922
0.361914
0.115489
0.266218
0.169234
0.256624
0.231179
0.395816
0.0898817
0.391783
0.165096
0.356023
0.144732
0.426736
0.144548
0.39908
0.124036
0.39633
0.108517
0.350568
0.125398
0.298864
0.209502
0.259621
0.236345
0.345483
0.15055
0.348627
0.164671
0.252328
0.115659
0.288896
0.139444
0.347453
0.0943588
0.342351
0.183896
0.306512
0.14336
0.370226
0.164868
0.379078
0.123747
0.374297
0.117422
0.355886
0.16612
0.350877
0.172332
0.307472
0.118648
0.292963
0.140226
0.286561
0.151191
0.213211
0.199296
0.316917
0.108118
0.427253
0.119589
0.189102
0.184187
0.400405
0.182538
0.371804
0.133491
0.387337
0.168807
0.321666
0.208761
0.371186
0.0894561
0.380589
0.169728
0.263351
0.144089
0.279544
0.256904
0.365339
0.143767
0.35659
0.105581
0.237624
0.21846
0.352506
0.199666
0.381756
0.164744
0.351238
0.184915
0.380088
0.087196
0.217585
0.190195
0.319398
0.191862
0.309207
0.186404
0.267636
0.167572
0.335923
0.153145
0.347067
0.158622
0.329574
0.24087
0.335923
0.0968532
0.330661
0.111997
0.246735
0.237955
0.285092
0.135767
0.273743
0.194497
0.323663
0.143954
0.259489
0.229464
0.293078
0.146323
0.320967
0.129157
0.298238
0.16137
0.291886
0.280164
0.28676
0.268601
0.34858
0.210858
0.293806
0.272606
0.285596
0.262929
0.30356
0.135825
0.280802
0.170776
0.287949
0.115389
0.314642
0.148914
0.424934
0.125451
0.303106
0.151221
0.349829
0.175873
0.298449
0.151847
0.345107
0.144828
0.284902
0.210493
0.329155
0.31953
0.269731
0.217561
0.305356
0.26858
0.363542
0.159923
0.352919
0.14772
0.34932
0.208539
0.344781
0.168411
0.335494
0.165623
0.326062
0.29471
0.320706
0.305249
0.301643
0.27643
0.369478
0.207515
0.346225
0.107501
0.342847
0.234248
0.344372
0.221418
0.282312
0.252108
0.340844
0.306319
0.258443
0.23243
0.327816
0.202871
0.341522
0.235149
0.299375
0.283728
0.316274
0.285565
0.27806
0.220089
0.318751
0.264053
0.274086
0.214935
0.244713
0.236629
0.279304
0.178636
0.261107
0.218585
0.268173
0.238613
0.311009
0.189073
0.274141
0.259476
0.285715
0.276631
0.295785
0.277618
0.369732
0.201555
0.34408
0.213369
0.315353
0.278698
0.352568
0.243202
0.33982
0.291842
0.297394
0.213023
0.276408
0.206294
0.287633
0.241758
0.265358
0.239307
0.323699
0.235452
0.231076
0.221057
0.317292
0.266326
