# vtk DataFile Version 3.0
Tree
ASCII
DATASET POLYDATA
POINTS 1300 float
34443.5 55443.5 6443.45
33438.5 52817.5 12801.5
33820.4 53815.4 10385.4
37151.5 52322.5 13543.5
33761.1 53047.4 12423
34181.5 52569.5 14038.5
34021.8 52751.1 13424.6
29726.5 49847.5 17256.4
31358.7 50950.9 15800.3
25270.5 48857.5 14038.5
36460 52275.1 13349.1
38636.5 49104.5 18245.4
32370.7 51635 14897.6
33191.5 49847.5 19730.4
38463.7 49694.5 16497.1
42843.5 45392.5 17998.4
29812.7 49921.8 16954.7
26261.5 47619.5 18741.4
33561.1 52904.9 12657.7
29230.5 51827.5 11563.5
32523 50334.5 18212.2
30221.5 48362.5 22700.4
26671.8 49076.2 14722.1
23538.4 46382.5 15523.5
38679.9 49172.4 18118.7
39378.5 48114.5 21711.4
33234.6 49913.9 19511
35170.5 49104.5 21958.4
39051.3 48538.7 21261.1
38388.5 49104.5 25423.5
30979.7 49374.5 20662
28983.5 48857.5 25670.5
42135 45798.9 18349.6
45318.5 41927.5 20968.4
43914.9 43176.4 19495.8
45070.5 38957.5 18493.4
38049.8 48965.2 23910.9
33933.5 49847.5 27403.5
29308.5 48878.5 23116.2
24033.4 47124.5 25670.5
44671.9 42356.6 20875.7
45813.5 40442.5 25670.5
38259.8 49051.6 24848.7
39130.5 48609.5 31611.5
44908.6 39983.6 19225.3
46803.5 35739.5 21215.4
35010.2 49609.3 27014.9
33685.5 49847.5 31363.5
46140.3 36774.6 20207.1
46803.5 32522.5 18988.4
25041.9 47286.3 25674
21063.4 44897.5 30621.5
22531.5 45404.9 28182.1
19330.4 41184.5 28393.5
20298.7 41769.6 28475
20073.4 37224.5 29383.5
42574.3 45546.9 18131.9
43585.5 42917.5 16018.5
45609.2 40370.2 24965
46555.5 36234.5 29878.5
21973.6 45212.1 29109.1
22943.5 47693.4 32693.5
24416.6 47186 25671.8
21063.4 43907.5 21711.4
23207.2 47126.5 31911.2
27251.5 49847.5 36066.5
39254.2 48275.7 21540.3
43091.5 46134.5 22453.4
45609.2 40370.2 24965
46308.5 40937.5 33838.5
25974.6 48652.5 35409
28241.5 48114.5 41758.5
43312.5 43107.6 16173.3
43585.5 39204.5 13048.5
21622.3 43995.7 22676.7
18588.4 38214.5 20968.4
27378.6 47679.1 39917.3
27251.5 43164.5 42995.5
19511.4 39394.3 21706.8
19330.4 35492.5 22948.4
19463.2 36858.1 22894.9
19826.4 35492.5 25670.5
26845.1 48049 38204.1
31706.5 50342.5 40273.5
26305.4 48423.2 36471.2
24033.4 42669.5 39283.5
27564.7 43672 44146.3
27498.5 41679.5 45966.5
27523.7 42436.7 45274.8
27003.5 36482.5 44728.5
27475 37426.3 45067.4
28241.5 34749.5 45470.5
28351.3 35057.2 45448.7
29728.5 32024.5 45968.5
27523.7 42436.7 45274.8
29230.5 37719.5 48688.5
38339.6 49084.4 25205.1
42348.5 47372.5 27403.5
18939.1 38662.8 21249
20073.4 35244.5 15771.5
38505.5 48820.4 31179.8
37893.5 48857.5 37798.5
19380.9 36011.4 22928.1
21311.4 29552.5 23691.4
43424.4 39400.5 13393.1
43338.5 37719.5 12306.5
20147.8 35926.3 16254.5
21311.4 34749.5 12801.5
24896.8 44855.9 38214.8
22053.4 40937.5 35323.5
37812.1 48707 37343.7
36903.5 48362.5 43738.5
21540.8 30063 23716
23785.4 25839.5 24433.4
27182.7 36841.1 44857.3
25270.5 34502.5 39036.5
23021.9 27612.4 23478.5
26508.5 23117.4 20226.4
26147.8 34662.6 40796.4
26756.5 29799.5 37055.5
23769 26359.4 24369.3
26013.5 24107.4 26908.5
25332 24999.5 26470.3
26756.5 24849.4 30126.5
26887.3 30412.2 37884.2
27745.5 27819.5 36808.5
26822.3 24751.3 29555.1
29973.5 23859.4 33096.5
26806.2 30032.3 37370.4
23291.4 29552.5 30868.5
37093.1 48739 39584.4
34428.5 49599.5 41015.5
34790.8 49670.2 40672
33438.5 50589.5 41015.5
29702.4 24281.5 32870.1
31706.5 24602.4 35323.5
23848.1 46482 15544.2
21063.4 43659.5 16513.4
38893 48689.6 31447.4
44081.5 46134.5 30373.5
41427 47443.8 31936.7
42100.5 46629.5 37798.5
45975.8 36587.7 29692.2
45566.5 32769.5 34828.5
45330.5 33592.5 34134.7
41853.5 30542.5 40521.5
24625.7 25544.7 21982.5
23785.4 24602.4 13543.5
45476.8 33082.2 34564.9
43943.4 27693.5 33193.4
45009 39347.4 18771.5
45070.5 34502.5 16018.5
20776.2 35290.8 14389.9
21806.4 30789.5 13791.5
42780.7 46649.2 36478.2
44328.5 43659.5 42748.5
40745.6 47693 18225.7
41358.5 47372.5 18988.4
27252.4 48172 18658.9
26756.5 47619.5 19978.4
21608.1 43800.6 16480.5
19826.4 40937.5 17503.4
20238.9 41871.5 17726.7
19578.4 41184.5 18741.4
45157.9 35325.5 15999.5
45813.5 31037.5 10573.5
45445.4 32399.7 12784.5
44823.5 30047.5 12801.5
25251.9 48551.4 34337.8
25765.5 49599.5 34581.5
43846.4 31861.1 37074.5
41606.5 28314.5 37798.5
43926.1 28373.8 33030.5
42843.5 25592.5 31858.5
43936.8 27952 33131.5
41606.5 26334.5 34581.5
42675.9 31456 39420.4
41606.5 33017.5 43243.5
42166 30889.6 40103.1
39873.5 28809.5 40025.5
42087 33072.2 42574.5
42100.5 34997.5 45223.5
42823.9 25962.2 32036.3
40615.5 22869.4 30868.5
41249.8 23570.8 30688.1
39625.5 20147.4 26660.5
39876.7 20761 27003.5
39130.5 19404.4 24433.4
42373.7 34866.4 44722.5
43091.5 36729.5 46461.5
42758.9 36434.4 46199.9
42100.5 38214.5 47946.5
31234.6 24723.7 35111.5
32200.5 26087.5 38540.5
31830.4 26037.4 37925.6
31706.5 27077.5 39283.5
40508.4 22053.5 28698.4
43833.5 22622.4 22948.4
42126.5 21892.7 24935.8
41853.5 19157.4 19483.4
40116.8 21252.1 27647.6
34675.5 20394.4 26413.5
42350.7 37538 47282.8
41693.4 43943.4 47443.4
22684.1 45208 23814.8
19578.4 43412.5 25175.5
44515.4 30163 33613.5
45318.5 28314.5 29383.5
42191.5 20357.2 21391.7
43585.5 20889.4 19483.4
41927.9 42416.8 46985.2
42100.5 45392.5 44480.5
41798.9 20651.2 22615.4
40863.5 19652.4 21711.4
41978.6 19081.4 19773.7
41853.5 17919.4 18493.4
41539.4 43489.8 47316.8
39873.5 45392.5 47946.5
43695.3 44499.6 39453.2
45318.5 38957.5 41510.5
24525.9 24875 18835
26013.5 21879.4 16265.5
42279.3 46334.7 22646.2
44576.5 44402.5 24185.4
29028 48968.7 25434.9
28488.5 49599.5 30373.5
26766.3 49393.4 35816.7
30963.5 50342.5 34581.5
19866.8 35514.7 25371.6
20815.4 33017.5 28888.5
25336.8 34826.6 39483.5
22548.4 36234.5 35818.5
29870.5 24019.8 33010.5
32943.5 21384.4 30868.5
20628.7 33830.4 28389.5
21311.4 34007.5 32106.5
41856.8 45079.2 44591.1
41606.5 46134.5 43491.5
27870.1 47858.2 41183.4
27745.5 47372.5 42253.5
32779.8 21732.9 30969.7
34675.5 20394.4 29630.5
41940.8 47229 27083.6
44328.5 45392.5 28145.5
30521.4 49900.2 35115.3
34181.5 49847.5 35076.5
42836 25733 31926.1
43833.5 24849.4 28145.5
31551.9 26942 39115.4
32200.5 28067.5 41015.5
45188.7 41275.1 22235.3
46555.5 38462.5 22700.4
46154.3 40403.1 31685.1
46555.5 38214.5 35570.5
20744.5 33326.4 28698.9
22053.4 29799.5 27403.5
21275.8 43941 22078.2
22795.4 45392.5 18741.4
23172.2 42934.2 36289.6
21311.4 43164.5 33343.5
27604.7 47761.5 40499.7
28241.5 48857.5 40768.5
27027.4 47656.6 39299.8
26508.5 46382.5 40768.5
30622.8 28168.9 40410.6
28241.5 29799.5 40521.5
24300.8 43090 38685.4
23291.4 38957.5 38293.5
26895.3 47778.3 19863.1
26508.5 47372.5 22453.4
46081.2 40992.9 33500.6
45070.5 42669.5 36808.5
26120.8 33215.4 39347.9
24528.4 32522.5 36066.5
44049.2 44605 24178.1
45318.5 42917.5 25918.5
46335.2 36368.7 29807.7
46061.5 32027.5 30126.5
24135 42829.3 39056.2
25270.5 40442.5 41510.5
45045.1 43303.8 25760.4
45813.5 42422.5 28145.5
21328.7 32551.9 14464.4
21558.4 29552.5 16760.4
28283.2 34866.4 45462.2
27745.5 32769.5 42995.5
28876.8 49498.5 29213.4
30221.5 50094.5 31611.5
43695.3 44499.6 39453.2
43833.5 40937.5 44480.5
29134.6 48934.5 24553.8
31211.5 49104.5 26166.5
20275.6 40114 29228.7
19826.4 39204.5 31611.5
24738 25516.2 25671.9
24528.4 26829.5 29136.5
34945.2 49663.7 29206.7
35913.5 49599.5 31115.5
22016.5 30161 27298.6
23043.4 28067.5 25918.5
43312.5 43107.6 16173.3
44576.5 38957.5 15771.5
46219.3 38221.9 34466.1
45813.5 35739.5 36066.5
26503.4 24510.5 28027.1
29973.5 22127.4 29878.5
19546.8 38019.1 18654.9
20073.4 38709.5 16265.5
24376.1 30428.4 33632.1
22795.4 31779.5 32600.5
44384.3 42668.1 20351.3
45070.5 44154.5 22948.4
35860 49582.3 30738.9
37398.5 49352.5 32106.5
32711.5 49870.2 35439.7
34923.5 49847.5 37551.5
41682.1 32980.5 43160.6
40121.5 32522.5 45470.5
34164.2 49777.7 30543.9
31953.5 49352.5 30621.5
42675.9 31456 39420.4
41110.5 30789.5 41758.5
23945.7 46686.4 26420.1
22053.4 46629.5 26166.5
25149.1 40614.7 41318.7
25765.5 39204.5 42748.5
22684.1 45208 23814.8
20321.4 44897.5 26908.5
42420.1 34425 43730.4
43585.5 37224.5 44233.5
34067.7 49729.4 27371.4
32200.5 49599.5 28145.5
44819.7 40862.5 40444.1
45813.5 38709.5 39036.5
26022.4 22353 17157.2
29973.5 18662.4 16760.4
22491.2 46135.3 29973.4
25023.5 48857.5 29136.5
27395.6 43398 43524.9
25765.5 42669.5 42995.5
21158 43493.5 28129.8
19578.4 42917.5 26908.5
26016.9 22059.4 16604.3
23785.4 24602.4 13543.5
39040.3 48640 31549.2
40368.5 48609.5 33343.5
26781.5 24812.1 29909.4
25765.5 26582.5 30868.5
20758.6 44094.8 24658.5
19083.4 42422.5 22948.4
44764 31263.5 34296.6
43338.5 29057.5 35570.5
36857 51045.2 15337
36160.5 50094.5 17750.4
20458.7 41818.5 22617.9
18588.4 39947.5 24681.4
27886.7 28372 37221.9
29230.5 26829.5 37055.5
42934 46615.4 32484.8
44328.5 45392.5 34333.5
27450.6 29602.4 37832
29973.5 29552.5 41758.5
18721.7 38384.9 21075
19083.4 36234.5 20226.4
31913.2 22232.3 31194.8
32200.5 20889.4 28641.5
19698.4 41406.8 28424.5
19083.4 38957.5 27155.5
29870.5 24019.8 33010.5
32448.5 23364.4 34085.5
34078.5 49718 35152.3
35913.5 49352.5 34828.5
28338 39090.4 47110.9
28241.5 35739.5 46708.5
20831.5 42838.4 28261
20073.4 42174.5 31115.5
34134.6 52558.2 13933.3
34428.5 51827.5 15523.5
19841.7 35500.9 25556.9
19083.4 36729.5 26660.5
31958.9 52393.8 12555.6
30468.5 51332.5 14038.5
22180.8 43342.7 34575.7
21806.4 45144.5 33096.5
28195.3 49961.2 14598.5
26756.5 50094.5 13048.5
20382 42180.6 30552.7
20815.4 40937.5 32600.5
30471 51822.1 12455.5
28983.5 50837.5 13048.5
43572.2 45434.8 37561.9
44823.5 44154.5 37798.5
34156.9 54694.6 8256.77
32193.5 53193.4 8693.45
19055 36468.6 20524.8
19578.4 33759.5 20721.4
41817.2 46439.5 18499.5
43338.5 45639.5 19730.4
23232 36166.3 36808.1
22053.4 38462.5 35818.5
26400.4 47674.3 18747.1
24776.4 46629.5 18988.4
37862.6 48800.3 37625.7
39378.5 48362.5 38788.5
34354.5 49422.5 21309.7
34181.5 49352.5 23443.4
20788.4 33134.9 28816.4
21558.4 32274.5 30373.5
44407.8 41783.2 18942.2
44823.5 40937.5 17750.4
22614.5 36210.6 35922.2
21311.4 36234.5 34085.5
28488.7 49125.6 17524
26756.5 48609.5 16760.4
45421.2 33276.2 34401.4
45566.5 33759.5 36560.5
33704.1 49806.5 20096.8
34428.5 50094.5 20226.4
22149.5 36012.5 35169.2
[...]
CELL_DATA 1299
SCALARS radius float
LOOKUP_TABLE default
69.4326
83.3262
77.463
77.463
69.4326
74.6879
57.8555
64.547
53.7845
80.3411
55.7829
69.4326
53.7845
60.0051
44.8166
60.0051
50
74.6879
60.0051
62.2346
53.7845
55.7829
46.4818
57.8555
46.4818
57.8555
48.2088
51.8578
36.0062
55.7829
46.4818
50
43.2111
48.2088
38.7315
44.8166
37.344
53.7845
43.2111
44.8166
34.7163
40.1706
30.0026
43.2111
33.4726
40.1706
33.4726
37.344
34.7163
46.4818
34.7163
40.1706
33.4726
36.0062
32.2735
46.4818
38.7315
37.344
27.8914
38.7315
31.1173
44.8166
33.4726
34.7163
25.9289
48.2088
43.2111
36.0062
25.9289
31.1173
21.6055
40.1706
33.4726
37.344
30.0026
24.1044
18.0031
33.4726
30.0026
32.2735
27.8914
26.8923
23.2409
28.9278
20.0853
19.3657
16.7363
18.0031
13.4461
14.4639
11.6204
13.4461
12.9644
17.3581
16.1367
38.7315
33.4726
32.2735
25.9289
33.4726
28.9278
31.1173
25.9289
34.7163
33.4726
27.8914
25.9289
25
20.0853
31.1173
25
27.8914
24.1044
13.9457
10.0426
25.9289
20.0853
10.8028
8.06837
25
22.4083
23.2409
20.0853
8.67907
7.23194
21.6055
16.1367
8.36815
6.97286
28.9278
25.9289
26.8923
25.9289
18.0031
15.0013
48.2088
43.2111
32.2735
25
28.9278
20.8316
31.1173
22.4083
25
18.0031
23.2409
20.0853
23.2409
16.7363
40.1706
34.7163
26.8923
23.2409
24.1044
18.672
53.7845
51.8578
53.7845
44.8166
44.8166
38.7315
43.2111
40.1706
36.0062
28.9278
32.2735
31.1173
32.2735
31.1173
22.4083
20.0853
18.672
15.5587
17.3581
16.1367
20.8316
16.7363
20.0853
18.672
18.0031
16.1367
16.7363
15.0013
15.5587
13.4461
13.9457
13.4461
16.7363
15.0013
15.5587
13.9457
15.5587
13.9457
14.4639
13.4461
15.0013
12.9644
13.4461
11.6204
14.4639
12.5
15.0013
12.5
40.1706
32.2735
19.3657
17.3581
12.5
11.6204
13.4461
12.0522
12.9644
12.0522
12.0522
11.6204
12.9644
12.0522
20.8316
18.0031
22.4083
20.0853
44.8166
40.1706
48.2088
38.7315
28.9278
25
30.0026
25
10.4158
8.06837
17.3581
14.4639
27.8914
25.9289
12.5
12.0522
22.4083
21.6055
15.0013
14.4639
34.7163
33.4726
25.9289
22.4083
16.1367
13.9457
13.9457
12.5
41.6631
40.1706
27.8914
25
26.8923
23.2409
36.0062
28.9278
21.6055
18.0031
23.2409
22.4083
25
24.1044
12.9644
12.5
22.4083
19.3657
48.2088
41.6631
26.8923
25
10.4158
9.68287
41.6631
37.344
28.9278
26.8923
21.6055
19.3657
38.7315
36.0062
25
21.6055
12.0522
10.8028
41.6631
38.7315
20.0853
18.0031
50
48.2088
34.7163
31.1173
24.1044
21.6055
37.344
33.4726
25
23.2409
38.7315
32.2735
25.9289
25
22.4083
20.8316
30.0026
28.9278
7.50064
6.97286
46.4818
40.1706
36.0062
34.7163
24.1044
21.6055
17.3581
16.7363
36.0062
33.4726
20.0853
16.7363
41.6631
40.1706
20.0853
18.0031
38.7315
33.4726
17.3581
16.1367
38.7315
37.344
19.3657
18.0031
21.6055
19.3657
37.344
34.7163
18.672
17.3581
38.7315
34.7163
20.8316
16.7363
31.1173
28.9278
20.8316
19.3657
34.7163
33.4726
22.4083
21.6055
69.4326
64.547
34.7163
33.4726
7.50064
6.72307
25.9289
24.1044
8.06837
7.50064
31.1173
26.8923
16.1367
15.5587
34.7163
32.2735
16.7363
15.5587
23.2409
21.6055
16.7363
14.4639
37.344
34.7163
72.0123
66.9452
28.9278
25.9289
66.9452
62.2346
20.0853
18.672
57.8555
55.7829
36.0062
32.2735
62.2346
57.8555
23.2409
20.8316
92.9635
89.6332
27.8914
25
51.8578
48.2088
8.67907
7.77933
51.8578
50
30.0026
26.8923
50
46.4818
25.9289
24.1044
46.4818
44.8166
8.36815
7.77933
57.8555
55.7829
24.1044
20.8316
55.7829
51.8578
8.06837
7.77933
50
48.2088
18.0031
16.7363
43.2111
40.1706
22.4083
20.8316
34.7163
32.2735
10.0426
9.33599
32.2735
31.1173
26.8923
25.9289
44.8166
43.2111
7.23194
6.72307
33.4726
32.2735
14.4639
13.9457
41.6631
38.7315
21.6055
20.8316
33.4726
32.2735
6.97286
6.25
30.0026
27.8914
25.9289
24.1044
34.7163
33.4726
11.6204
10.4158
33.4726
32.2735
89.6332
86.4222
25.9289
25
60.0051
57.8555
19.3657
18.0031
53.7845
51.8578
25.9289
24.1044
31.1173
27.8914
15.0013
14.4639
34.7163
33.4726
64.547
62.2346
25.9289
25
53.7845
50
18.672
18.0031
33.4726
32.2735
9.00154
8.67907
30.0026
28.9278
13.4461
12.9644
40.1706
38.7315
51.8578
50
25.9289
23.2409
38.7315
36.0062
8.06837
7.77933
28.9278
27.8914
51.8578
48.2088
19.3657
18.0031
28.9278
27.8914
96.4176
89.6332
25
24.1044
30.0026
28.9278
20.8316
20.0853
37.344
36.0062
46.4818
44.8166
19.3657
18.672
50
48.2088
14.4639
13.9457
34.7163
30.0026
50
46.4818
7.77933
7.50064
26.8923
25
50
46.4818
15.5587
14.4639
34.7163
33.4726
41.6631
38.7315
21.6055
20.8316
41.6631
40.1706
20.0853
19.3657
30.0026
26.8923
41.6631
40.1706
17.3581
15.5587
18.672
17.3581
46.4818
44.8166
22.4083
21.6055
31.1173
30.0026
37.344
36.0062
23.2409
22.4083
32.2735
31.1173
48.2088
46.4818
26.8923
25
48.2088
44.8166
12.5
12.0522
27.8914
26.8923
33.4726
32.2735
12.9644
12.5
18.672
18.0031
37.344
36.0062
19.3657
18.672
25.9289
25
38.7315
37.344
7.23194
6.72307
25.9289
25
36.0062
34.7163
20.8316
19.3657
32.2735
31.1173
37.344
36.0062
15.5587
15.0013
8.06837
7.77933
34.7163
33.4726
18.672
18.0031
24.1044
22.4083
36.0062
33.4726
33.4726
32.2735
30.0026
28.9278
40.1706
38.7315
62.2346
60.0051
18.672
18.0031
43.2111
40.1706
62.2346
60.0051
24.1044
23.2409
34.7163
33.4726
18.0031
17.3581
22.4083
21.6055
38.7315
37.344
57.8555
55.7829
22.4083
21.6055
34.7163
33.4726
60.0051
57.8555
18.672
17.3581
28.9278
27.8914
60.0051
57.8555
25
24.1044
33.4726
32.2735
74.6879
72.0123
12.0522
11.2042
32.2735
30.0026
77.463
72.0123
30.0026
27.8914
34.7163
33.4726
55.7829
53.7845
21.6055
20.8316
28.9278
27.8914
48.2088
44.8166
20.8316
20.0853
30.0026
28.9278
46.4818
44.8166
23.2409
21.6055
26.8923
25.9289
36.0062
34.7163
16.1367
15.5587
30.0026
28.9278
41.6631
40.1706
11.6204
11.2042
30.0026
28.9278
40.1706
38.7315
21.6055
20.8316
26.8923
25
44.8166
43.2111
7.77933
7.50064
32.2735
31.1173
34.7163
33.4726
24.1044
23.2409
22.4083
20.8316
36.0062
34.7163
53.7845
51.8578
24.1044
22.4083
36.0062
34.7163
40.1706
38.7315
69.4326
66.9452
27.8914
26.8923
34.7163
33.4726
51.8578
50
22.4083
21.6055
25.9289
25
40.1706
38.7315
43.2111
41.6631
9.68287
9.33599
32.2735
31.1173
30.0026
28.9278
55.7829
53.7845
23.2409
22.4083
28.9278
27.8914
30.0026
28.9278
37.344
36.0062
51.8578
50
18.0031
17.3581
21.6055
20.8316
36.0062
34.7163
50
48.2088
19.3657
18.672
24.1044
23.2409
25
24.1044
37.344
36.0062
41.6631
40.1706
12.0522
11.6204
21.6055
20.8316
31.1173
30.0026
33.4726
32.2735
33.4726
32.2735
41.6631
40.1706
22.4083
21.6055
8.36815
8.06837
26.8923
25.9289
36.0062
34.7163
40.1706
38.7315
26.8923
25.9289
21.6055
20.0853
20.8316
20.0853
18.0031
17.3581
26.8923
25.9289
25
24.1044
27.8914
26.8923
26.8923
25.9289
27.8914
26.8923
25.9289
25
27.8914
25.9289
27.8914
26.8923
26.8923
25.9289
20.8316
20.0853
22.4083
21.6055
24.1044
23.2409
28.9278
27.8914
27.8914
26.8923
21.6055
20.8316
27.8914
26.8923
20.8316
20.0853
22.4083
21.6055
11.6204
11.2042
25.9289
25
25.9289
25
17.3581
16.7363
25.9289
25
17.3581
16.7363
24.1044
23.2409
20.0853
19.3657
18.0031
17.3581
13.9457
12.9644
21.6055
20.8316
14.4639
13.9457
9.00154
8.67907
12.9644
12.5
18.672
17.3581
26.8923
25.9289
18.0031
17.3581
18.672
18.0031
9.68287
9.00154
19.3657
18.672
27.8914
26.8923
15.0013
14.4639
16.7363
16.1367
18.672
18.0031
19.3657
18.672
24.1044
23.2409
16.1367
15.5587
14.4639
13.9457
16.1367
15.5587
20.8316
20.0853
20.8316
20.0853
19.3657
18.672
11.2042
10.8028
18.672
18.0031
9.68287
9.33599
11.2042
10.8028
13.4461
12.9644
16.1367
15.5587
15.5587
15.0013
6.97286
6.72307
20.0853
19.3657
16.7363
16.1367
12.9644
12.5
10.8028
10.4158
16.7363
16.1367
16.1367
15.5587
33.4726
32.2735
20.8316
20.0853
13.9457
13.4461
64.547
62.2346
66.9452
64.547
20.0853
19.3657
62.2346
60.0051
66.9452
64.547
66.9452
64.547
33.4726
32.2735
69.4326
66.9452
92.9635
89.6332
64.547
62.2346
86.4222
83.3262
72.0123
69.4326
44.8166
43.2111
53.7845
51.8578
48.2088
46.4818
50
48.2088
48.2088
46.4818
37.344
36.0062
80.3411
77.463
46.4818
44.8166
44.8166
43.2111
40.1706
38.7315
37.344
36.0062
43.2111
41.6631
41.6631
37.344
43.2111
41.6631
41.6631
40.1706
34.7163
33.4726
37.344
36.0062
41.6631
40.1706
38.7315
37.344
36.0062
34.7163
46.4818
44.8166
37.344
36.0062
37.344
36.0062
37.344
36.0062
36.0062
34.7163
31.1173
30.0026
27.8914
26.8923
28.9278
27.8914
18.0031
17.3581
28.9278
27.8914
6.48222
6.25
10.0426
9.33599
20.0853
19.3657
36.0062
34.7163
18.0031
17.3581
44.8166
43.2111
12.9644
12.5
36.0062
34.7163
8.36815
8.06837
33.4726
32.2735
50
48.2088
23.2409
22.4083
36.0062
34.7163
43.2111
41.6631
12.5
12.0522
7.23194
6.97286
24.1044
23.2409
22.4083
21.6055
28.9278
27.8914
23.2409
22.4083
33.4726
32.2735
34.7163
33.4726
27.8914
26.8923
28.9278
27.8914
22.4083
21.6055
25.9289
25
22.4083
21.6055
23.2409
22.4083
23.2409
22.4083
20.0853
19.3657
25
24.1044
21.6055
20.8316
19.3657
18.672
26.8923
25.9289
18.672
18.0031
23.2409
22.4083
25
24.1044
9.68287
9.33599
17.3581
16.7363
16.1367
15.5587
21.6055
20.8316
13.9457
13.4461
11.2042
10.8028
16.1367
15.5587
64.547
62.2346
17.3581
16.7363
7.77933
7.50064
72.0123
69.4326
57.8555
55.7829
43.2111
41.6631
40.1706
38.7315
43.2111
41.6631
31.1173
30.0026
36.0062
34.7163
23.2409
22.4083
12.5
12.0522
18.672
18.0031
16.7363
16.1367
12.5
12.0522
74.6879
72.0123
46.4818
44.8166
43.2111
41.6631
46.4818
44.8166
31.1173
30.0026
27.8914
26.8923
26.8923
25.9289
25
24.1044
20.8316
20.0853
6.97286
6.72307
72.0123
69.4326
51.8578
50
26.8923
25.9289
26.8923
25.9289
18.0031
17.3581
13.4461
12.9644
55.7829
53.7845
31.1173
30.0026
20.8316
20.0853
9.33599
9.00154
15.0013
14.4639
46.4818
44.8166
32.2735
31.1173
23.2409
22.4083
18.672
18.0031
15.0013
14.4639
44.8166
43.2111
30.0026
28.9278
13.4461
12.9644
20.8316
20.0853
100
96.4176
30.0026
28.9278
21.6055
20.8316
17.3581
16.7363
60.0051
57.8555
38.7315
37.344
24.1044
23.2409
15.0013
14.4639
20.0853
19.3657
38.7315
37.344
27.8914
26.8923
18.672
18.0031
66.9452
64.547
41.6631
40.1706
9.33599
9.00154
55.7829
53.7845
19.3657
18.672
25
24.1044
36.0062
34.7163
16.7363
16.1367
15.5587
15.0013
51.8578
50
19.3657
18.672
9.33599
9.00154
38.7315
37.344
6.72307
6.48222
48.2088
46.4818
28.9278
27.8914
72.0123
69.4326
25
24.1044
21.6055
20.8316
40.1706
38.7315
20.0853
19.3657
23.2409
22.4083
10.0426
9.68287
43.2111
41.6631
20.0853
19.3657
16.7363
16.1367
31.1173
30.0026
20.8316
20.0853
33.4726
32.2735
13.9457
13.4461
21.6055
20.8316
34.7163
33.4726
