# vtk DataFile Version 3.0
Tree
ASCII
DATASET POLYDATA
POINTS 400 float
0 0 0
0.0284882 -0.117668 0
0.0142441 -0.0588341 0
-0.084345 -0.124206 0
-0.0350505 -0.0915202 0
-0.0273036 -0.241736 0
-0.0311771 -0.166628 0
0.117199 -0.220428 0
0.0213661 -0.0882512 0
0.135396 -0.10402 0
0.043011 -0.193528 0
0.0349492 -0.342009 0
-0.0292403 -0.204182 0
-0.117832 -0.330229 0
-0.0735363 -0.267206 0
-0.179759 -0.212589 0
0.0389801 -0.267768 0
0.160808 -0.339847 0
-0.0956843 -0.298717 0
-0.048139 -0.430705 0
0.0998941 -0.303808 0
0.220389 -0.188734 0
0.130351 -0.321827 0
0.0814013 -0.441234 0
-0.0719116 -0.364711 0
-0.172102 -0.437499 0
-0.122007 -0.401105 0
0.00727948 -0.523416 0
-0.126648 -0.239898 0
-0.265852 -0.294257 0
0.105876 -0.38153 0
0.263934 -0.381994 0
-0.0596977 -0.107863 0
-0.191587 -0.074087 0
0.0936387 -0.411382 0
0.138351 -0.56244 0
0.160141 -0.246271 0
0.299555 -0.265445 0
-0.0573636 -0.462261 0
-0.115071 -0.608692 0
-0.0896851 -0.431683 0
-0.289075 -0.454097 0
-0.0862174 -0.535476 0
-0.0108282 -0.662834 0
-0.19625 -0.267077 0
-0.283514 -0.153428 0
0.115995 -0.486911 0
0.286065 -0.534371 0
-0.100644 -0.572084 0
-0.245416 -0.607292 0
0.20103 -0.510641 0
0.101152 -0.689668 0
-0.18938 -0.44289 0
-0.333158 -0.355666 0
0.243547 -0.522506 0
0.366501 -0.397456 0
-0.0485228 -0.599155 0
-0.109189 -0.739856 0
0.151091 -0.600154 0
0.241489 -0.624991 0
-0.0788556 -0.669505 0
0.0247168 -0.779838 0
-0.0940221 -0.70468 0
-0.223088 -0.719622 0
-0.261269 -0.399278 0
-0.378201 -0.527931 0
0.19629 -0.612573 0
0.219563 -0.748318 0
0.305024 -0.459981 0
0.404494 -0.515114 0
0.207926 -0.680446 0
0.118551 -0.781972 0
-0.239228 -0.448493 0
-0.36256 -0.64805 0
-0.0270694 -0.724672 0
-0.0918087 -0.848069 0
-0.239882 -0.210253 0
-0.390317 -0.25276 0
0.213744 -0.714382 0
0.372935 -0.679206 0
-0.158555 -0.712151 0
-0.239256 -0.833567 0
-0.0594391 -0.78637 0
0.0842499 -0.901539 0
0.229848 -0.255858 0
0.36572 -0.181307 0
0.29334 -0.696794 0
0.328605 -0.78593 0
-0.319735 -0.463604 0
-0.455698 -0.363234 0
0.310972 -0.741362 0
0.237852 -0.881038 0
-0.198905 -0.772859 0
-0.342051 -0.783427 0
-0.21908 -0.803213 0
-0.15234 -0.948945 0
-0.300894 -0.548271 0
-0.468853 -0.598461 0
0.0124054 -0.843955 0
0.0161027 -0.995331 0
0.297784 -0.218582 0
0.460182 -0.324397 0
0.302156 -0.719078 0
0.487754 -0.626935 0
0.014254 -0.919643 0
0.13212 -0.994313 0
0.354759 -0.487547 0
0.513565 -0.483588 0
-0.384873 -0.573366 0
-0.471661 -0.737964 0
-0.18571 -0.876079 0
-0.337818 -0.931602 0
0.274412 -0.8112 0
0.355689 -0.929331 0
0.31505 -0.870265 0
0.246076 -0.983485 0
0.394955 -0.673006 0
0.482905 -0.777396 0
0.0151784 -0.957487 0
-0.100126 -1.08226 0
-0.426863 -0.585914 0
-0.527468 -0.485012 0
0.331752 -0.199944 0
0.250005 -0.0749812 0
-0.261764 -0.903841 0
-0.451944 -0.864686 0
-0.299791 -0.917722 0
-0.244722 -1.05045 0
-0.0424739 -1.01988 0
0.0604691 -1.08096 0
0.0156405 -0.976409 0
0.180611 -1.08504 0
0.33537 -0.899798 0
0.457113 -0.866599 0
0.280563 -0.926875 0
0.366496 -1.03661 0
-0.428267 -0.655665 0
-0.577244 -0.653186 0
-0.502756 -0.654426 0
-0.535282 -0.812421 0
0.00899758 -1.05042 0
-0.0129595 -1.17723 0
-0.356854 -0.884263 0
-0.432406 -0.992455 0
0.434162 -0.485568 0
0.550431 -0.372465 0
-0.00198095 -1.11382 0
0.127058 -1.20049 0
-0.54 -0.653806 0
-0.60954 -0.554144 0
0.43893 -0.725201 0
0.598194 -0.722157 0
-0.00747021 -1.14552 0
-0.161893 -1.20893 0
0.32353 -0.981741 0
0.302057 -1.12411 0
-0.272257 -0.984085 0
-0.325628 -1.15715 0
0.396242 -0.883199 0
0.4988 -0.988003 0
0.473864 -0.484578 0
0.581222 -0.579584 0
0.518562 -0.723679 0
0.588655 -0.852102 0
-0.298942 -1.07062 0
-0.437359 -1.11427 0
-0.261698 -0.181841 0
-0.512539 -0.256007 0
-0.0846815 -1.17723 0
-0.0558838 -1.28819 0
-0.39463 -0.938359 0
-0.553481 -0.94611 0
-0.0102148 -1.16138 0
0.240516 -1.24988 0
0.312794 -1.05292 0
0.405576 -1.18078 0
-0.474056 -0.942235 0
-0.533702 -1.06651 0
0.527543 -0.532081 0
0.630403 -0.465954 0
-0.348968 -0.495767 0
-0.603713 -0.379492 0
0.115151 -1.20563 0
0.0675719 -1.32581 0
-0.123287 -1.19308 0
-0.205196 -1.32991 0
0.359185 -1.11685 0
0.53252 -1.10286 0
-0.558622 -0.653496 0
-0.678822 -0.736669 0
-0.368151 -1.09244 0
-0.380839 -1.26373 0
-0.164242 -1.26149 0
-0.253154 -1.21971 0
0.177833 -1.22776 0
0.182636 -1.34358 0
0.553608 -0.787891 0
0.701556 -0.748337 0
0.447521 -0.935601 0
0.62629 -0.982337 0
0.378983 -0.271489 0
0.482986 -0.210232 0
0.38238 -1.14881 0
0.371804 -1.31141 0
-0.618722 -0.695082 0
-0.638861 -0.835985 0
0.180235 -1.28567 0
0.0998534 -1.42925 0
0.627582 -0.768114 0
0.71071 -0.620883 0
-0.184719 -1.2957 0
-0.103457 -1.43981 0
0.377092 -1.23011 0
0.511445 -1.24146 0
-0.503879 -1.00437 0
-0.672879 -0.968059 0
-0.194958 -1.3128 0
-0.364992 -1.37245 0
-0.374495 -1.17809 0
-0.528079 -1.20476 0
0.664569 -0.758225 0
0.733276 -0.863398 0
-0.588379 -0.986215 0
-0.630991 -1.14991 0
-0.451287 -1.19143 0
-0.502345 -1.30235 0
0.536905 -0.958969 0
0.643117 -1.14607 0
0.181435 -1.31463 0
0.293576 -1.43234 0
0.237506 -1.37348 0
0.00396891 -1.4898 0
-0.648772 -0.715876 0
-0.720299 -0.606605 0
-0.684536 -0.66124 0
-0.677617 -0.450962 0
0.374448 -1.27076 0
0.447228 -1.38529 0
-0.628792 -0.765534 0
-0.771448 -0.842278 0
-0.144088 -1.36775 0
-0.210775 -1.4874 0
0.590011 -1.05252 0
0.745285 -0.994728 0
0.616564 -1.09929 0
0.611682 -1.26349 0
0.265541 -1.40291 0
0.233053 -1.52981 0
0.120737 -1.43164 0
0.102708 -1.56979 0
0.430985 -0.240861 0
0.589491 -0.262566 0
-0.279975 -1.34263 0
-0.313901 -1.52369 0
0.111723 -1.50072 0
-0.044726 -1.59211 0
-0.296938 -1.43316 0
-0.45568 -1.45304 0
-0.609685 -1.06806 0
-0.742054 -1.09011 0
0.456986 -0.225547 0
0.438446 -0.132448 0
-0.476816 -1.24689 0
-0.622599 -1.32061 0
0.629841 -1.12268 0
0.755561 -1.1178 0
-0.305419 -1.47842 0
-0.212362 -1.60116 0
0.698923 -0.810812 0
0.817855 -0.807713 0
0.410838 -1.32803 0
0.595628 -1.38761 0
-0.67587 -1.07909 0
-0.726031 -1.21068 0
0.578973 -0.499017 0
0.753766 -0.539354 0
0.429033 -1.35666 0
0.432421 -1.52042 0
0.614123 -1.18139 0
0.709043 -1.23352 0
-0.702418 -0.633923 0
-0.80177 -0.674 0
0.666369 -0.519186 0
0.694133 -0.368288 0
-0.549707 -1.28375 0
-0.574305 -1.43931 0
0.430727 -1.43854 0
0.535534 -1.49179 0
0.0334985 -1.54642 0
0.152095 -1.66493 0
0.249297 -1.46636 0
0.310668 -1.6321 0
-0.708962 -1.0846 0
-0.848011 -0.978395 0
-0.258891 -1.53979 0
-0.382575 -1.61813 0
-0.387119 -0.218924 0
-0.399842 -0.101161 0
0.758389 -0.809263 0
0.828877 -0.675574 0
-0.320733 -1.57896 0
-0.159936 -1.71628 0
-0.351654 -1.59855 0
-0.48457 -1.55176 0
-0.562006 -1.36153 0
-0.740888 -1.3301 0
0.788122 -0.808488 0
0.874433 -0.880116 0
0.0927965 -1.60567 0
0.0118407 -1.72342 0
0.661583 -1.20745 0
0.711533 -1.36488 0
0.279982 -1.54923 0
0.42471 -1.63162 0
-0.70095 -1.14488 0
-0.820667 -1.21935 0
0.667648 -1.02362 0
0.847915 -1.07468 0
-0.240335 -1.64762 0
-0.323534 -1.70114 0
-0.681076 -0.556101 0
-0.801391 -0.536365 0
-0.752094 -0.653961 0
-0.886264 -0.835325 0
0.686558 -1.28617 0
0.807575 -1.28987 0
0.352346 -1.59043 0
0.287552 -1.73987 0
-0.651447 -1.34581 0
-0.714009 -1.45598 0
0.431574 -1.47948 0
0.666206 -1.51692 0
-0.778487 -1.0315 0
-0.898112 -1.05961 0
-0.418112 -1.57515 0
-0.510612 -1.67673 0
0.319949 -1.66515 0
0.193699 -1.74908 0
0.54889 -1.4982 0
0.539683 -1.62194 0
0.747067 -1.28802 0
0.878131 -1.19298 0
0.303751 -1.70251 0
0.417584 -1.75422 0
-0.281934 -1.67438 0
-0.0822089 -1.83565 0
-0.464362 -1.62594 0
-0.638504 -1.59861 0
0.0523186 -1.66455 0
0.0965768 -1.8103 0
-0.182072 -1.75501 0
-0.281245 -1.81905 0
0.777321 -1.28895 0
0.812505 -1.4131 0
-0.39348 -0.160043 0
-0.640646 -0.259496 0
-0.679347 -0.503532 0
-0.764371 -0.391944 0
-0.721859 -0.447738 0
-0.681968 -0.337275 0
-0.682728 -1.4009 0
-0.846475 -1.31102 0
-0.396661 -0.130602 0
-0.317783 -0.0585134 0
-0.232003 -1.7147 0
-0.382457 -1.80019 0
-0.819179 -0.744643 0
-0.90916 -0.687305 0
0.360668 -1.72836 0
0.307461 -1.85259 0
0.334064 -1.79048 0
0.178282 -1.90316 0
0.706466 -1.00918 0
0.946782 -1.09074 0
0.0744477 -1.73743 0
0.0182996 -1.92463 0
0.347366 -1.75942 0
0.542727 -1.76006 0
0.544287 -1.56007 0
0.741027 -1.60694 0
-0.231658 -1.78703 0
-0.202882 -1.92907 0
-0.487487 -1.65134 0
-0.516051 -1.80984 0
-0.838299 -1.04555 0
-0.975789 -0.910397 0
0.793633 -0.742418 0
0.93087 -0.717263 0
-0.764601 -1.35596 0
-0.82908 -1.52308 0
0.826624 -1.04996 0
0.942178 -0.951049 0
0.710068 -0.52927 0
0.84865 -0.483221 0
-0.868206 -1.05258 0
-0.954328 -1.18487 0
0.642657 -1.5835 0
0.803985 -1.51775 0
-0.21727 -1.85805 0
-0.333498 -1.92744 0
LINES 399 1197
2 8 1
2 0 2
2 32 3
2 2 4
2 12 5
2 4 6
2 10 7
2 2 8
2 8 9
2 6 10
2 16 11
2 6 12
2 18 13
2 12 14
2 28 15
2 10 16
2 22 17
2 14 18
2 24 19
2 16 20
2 36 21
2 20 22
2 34 23
2 18 24
2 26 25
2 24 26
2 38 27
2 14 28
2 44 29
2 22 30
2 30 31
2 4 32
2 32 33
2 30 34
2 46 35
2 20 36
2 84 37
2 40 38
2 48 39
2 26 40
2 72 41
2 38 42
2 56 43
2 28 44
2 166 45
2 34 46
2 54 47
2 42 48
2 48 49
2 46 50
2 58 51
2 40 52
2 64 53
2 50 54
2 68 55
2 42 56
2 62 57
2 50 58
2 66 59
2 56 60
2 74 61
2 60 62
2 80 63
2 52 64
2 180 65
2 58 66
2 78 67
2 54 68
2 106 69
2 66 70
2 70 71
2 52 72
2 96 73
2 60 74
2 82 75
2 44 76
2 76 77
2 70 78
2 86 79
2 62 80
2 94 81
2 74 82
2 98 83
2 36 84
2 122 85
2 78 86
2 90 87
2 64 88
2 88 89
2 102 90
2 112 91
2 80 92
2 92 93
2 92 94
2 110 95
2 72 96
2 120 97
2 82 98
2 130 99
2 84 100
2 200 101
2 86 102
2 116 103
2 98 104
2 104 105
2 68 106
2 160 107
2 96 108
2 136 109
2 94 110
2 126 111
2 90 112
2 132 113
2 112 114
2 134 115
2 102 116
2 150 117
2 104 118
2 128 119
2 108 120
2 120 121
2 100 122
2 122 123
2 110 124
2 142 125
2 124 126
2 156 127
2 118 128
2 140 129
2 118 130
2 130 131
2 114 132
2 158 133
2 114 134
2 154 135
2 108 136
2 188 137
2 136 138
2 138 139
2 128 140
2 172 141
2 124 142
2 170 143
2 106 144
2 144 145
2 140 146
2 146 147
2 138 148
2 148 149
2 116 150
2 162 151
2 146 152
2 184 153
2 134 154
2 174 155
2 126 156
2 164 157
2 132 158
2 198 159
2 144 160
2 178 161
2 150 162
2 196 163
2 156 164
2 190 165
2 76 166
2 296 167
2 152 168
2 168 169
2 142 170
2 176 171
2 152 172
2 194 173
2 154 174
2 202 175
2 170 176
2 214 177
2 160 178
2 274 179
2 88 180
2 180 181
2 172 182
2 182 183
2 168 184
2 216 185
2 174 186
2 186 187
2 148 188
2 232 189
2 164 190
2 218 191
2 184 192
2 192 193
2 182 194
2 228 195
2 162 196
2 220 197
2 158 198
2 226 199
2 100 200
2 260 201
2 186 202
2 236 203
2 188 204
2 238 205
2 194 206
2 206 207
2 196 208
2 208 209
2 192 210
2 240 211
2 202 212
2 212 213
2 176 214
2 222 215
2 210 216
2 252 217
2 190 218
2 224 219
2 208 220
2 268 221
2 214 222
2 258 223
2 218 224
2 262 225
2 198 226
2 264 227
2 206 228
2 246 229
2 228 230
2 248 231
2 204 232
2 280 233
2 232 234
2 356 235
2 212 236
2 276 237
2 204 238
2 238 239
2 210 240
2 240 241
2 226 242
2 372 243
2 242 244
2 278 245
2 230 246
2 290 247
2 230 248
2 254 249
2 200 250
2 250 251
2 216 252
2 266 253
2 248 254
2 288 255
2 252 256
2 256 257
2 222 258
2 292 259
2 250 260
2 260 261
2 224 262
2 284 263
2 244 264
2 264 265
2 256 266
2 294 267
2 220 268
2 306 269
2 236 270
2 270 271
2 258 272
2 314 273
2 178 274
2 392 275
2 270 276
2 330 277
2 244 278
2 310 279
2 234 280
2 322 281
2 274 282
2 282 283
2 262 284
2 304 285
2 276 286
2 286 287
2 254 288
2 308 289
2 246 290
2 312 291
2 272 292
2 332 293
2 266 294
2 302 295
2 166 296
2 362 297
2 268 298
2 386 299
2 294 300
2 318 301
2 300 302
2 334 303
2 284 304
2 328 305
2 298 306
2 306 307
2 288 308
2 348 309
2 278 310
2 324 311
2 290 312
2 326 313
2 272 314
2 314 315
2 242 316
2 316 317
2 300 318
2 344 319
2 234 320
2 320 321
2 280 322
2 366 323
2 310 324
2 352 325
2 312 326
2 342 327
2 304 328
2 360 329
2 286 330
2 338 331
2 292 332
2 394 333
2 302 334
2 382 335
2 326 336
2 336 337
2 330 338
2 378 339
2 324 340
2 340 341
2 336 342
2 368 343
2 318 344
2 350 345
2 334 346
2 346 347
2 308 348
2 374 349
2 364 350
2 380 351
2 340 352
2 352 353
2 296 354
2 354 355
2 320 356
2 358 357
2 356 358
2 358 359
2 328 360
2 388 361
2 354 362
2 362 363
2 344 364
2 364 365
2 322 366
2 366 367
2 342 368
2 370 369
2 376 370
2 370 371
2 316 372
2 390 373
2 348 374
2 374 375
2 368 376
2 376 377
2 338 378
2 396 379
2 350 380
2 398 381
2 346 382
2 382 383
2 332 384
2 384 385
2 298 386
2 386 387
2 360 388
2 388 389
2 372 390
2 390 391
2 282 392
2 392 393
2 384 394
2 394 395
2 378 396
2 396 397
2 380 398
2 398 399
CELL_DATA 399
SCALARS radius float
LOOKUP_TABLE default
0.545491
0.609561
0.150673
0.166013
0.0329405
0.0404788
0.0309266
0.605429
0.390614
0.0311817
0.0089849
0.0330217
0.00351038
0.00642446
0.00584105
0.00903706
0.00155311
0.00352304
0.000772369
0.00233334
0.00197963
0.00155892
0.000150446
0.0007772
0.000205065
0.000205674
3.08999e-05
0.0060499
0.0027067
0.000348159
0.000338393
0.165207
0.102863
0.000151143
3.59525e-05
0.00207353
0.00101135
3.1113e-05
7.55196e-06
4.25614e-05
2.45915e-05
8.5022e-06
2.91516e-06
0.00280838
0.000903986
3.6234e-05
9.61292e-06
8.38425e-06
5.41377e-06
1.0323e-05
5.26279e-06
3.60833e-05
2.97954e-05
9.81611e-06
3.66676e-06
2.93281e-06
6.79166e-07
5.36285e-06
2.02652e-06
7.67765e-07
5.00799e-07
6.86059e-07
2.10589e-07
3.1612e-05
1.24434e-05
2.03868e-06
2.32836e-07
3.86036e-06
1.96848e-06
5.32222e-07
5.16654e-07
2.48742e-05
7.83913e-06
5.06133e-07
1.58176e-07
0.00132376
0.00115163
2.34199e-07
5.99489e-08
2.12795e-07
3.24908e-08
1.59481e-07
4.58145e-08
0.00104988
0.000409193
6.06359e-08
1.5377e-08
1.72568e-05
1.39861e-05
1.55288e-08
4.7095e-09
6.66887e-08
6.39358e-08
3.27835e-08
9.64455e-09
8.03535e-06
2.84326e-06
4.62309e-08
5.46477e-09
0.00049704
0.000284985
1.95679e-08
1.48746e-08
1.38302e-08
1.34771e-08
2.01885e-06
5.45207e-07
3.33484e-06
1.62953e-06
9.78039e-09
2.88658e-09
4.77228e-09
1.34554e-09
1.61767e-09
1.15913e-09
1.55334e-08
7.46818e-09
5.82349e-09
1.81006e-09
3.19054e-06
2.11739e-06
0.000453752
0.000292044
3.37497e-09
2.26463e-09
2.94131e-09
1.08914e-09
1.83583e-09
6.3134e-10
5.76203e-09
3.04046e-09
1.36739e-09
4.82917e-10
1.18796e-09
4.7918e-10
1.6642e-06
2.19457e-07
6.55887e-07
6.23308e-07
6.3579e-10
7.30758e-11
2.35109e-09
1.08497e-09
8.43729e-07
7.49745e-07
1.74996e-10
1.69454e-10
3.4197e-07
3.07767e-07
7.70224e-09
3.29661e-09
7.90103e-11
2.20517e-11
4.92007e-10
2.04528e-10
1.11713e-09
4.50245e-10
4.94113e-10
1.9561e-10
5.6377e-07
2.41098e-07
3.43143e-09
1.61059e-09
4.67564e-10
2.15332e-10
0.00092534
0.000341506
4.61442e-11
4.43379e-11
1.11382e-09
4.54665e-10
7.3371e-11
7.47658e-12
2.08578e-10
4.81988e-11
4.71209e-10
2.1357e-10
2.5775e-07
1.39297e-07
1.33946e-05
7.81034e-06
1.68084e-11
1.62759e-11
2.23018e-11
2.23839e-12
8.03351e-11
7.37491e-11
2.21312e-07
4.57795e-08
2.22014e-10
9.47459e-11
7.17321e-12
6.98399e-12
7.58956e-12
1.54829e-12
1.66042e-09
4.80965e-10
2.00138e-10
7.94598e-11
0.000308532
0.000131032
4.89577e-11
1.02921e-11
6.46495e-08
4.77709e-08
2.6793e-12
2.48919e-12
7.36758e-10
6.51016e-10
3.05263e-12
2.15947e-12
1.75147e-11
1.61594e-11
2.19931e-10
9.28318e-11
2.25568e-12
6.27799e-13
9.85989e-11
4.5356e-11
4.98671e-10
2.21648e-10
9.64295e-11
4.41369e-11
4.76278e-11
2.3629e-11
8.10229e-11
2.10293e-11
1.56193e-12
3.91651e-13
4.62487e-13
3.02671e-13
4.67785e-08
1.58288e-08
1.85853e-08
7.63186e-09
1.04868e-11
2.69644e-12
5.51614e-08
3.88921e-08
2.56972e-12
1.90366e-12
3.11386e-11
1.80729e-11
2.44876e-11
1.2604e-11
4.01432e-13
1.61541e-13
3.24701e-13
1.78943e-13
0.000183949
0.00014458
6.39872e-13
1.32566e-13
1.86683e-13
8.63987e-14
2.44135e-13
2.29503e-13
4.58938e-11
1.69378e-11
0.000147394
9.83882e-05
2.45157e-11
1.09609e-11
2.30354e-11
1.42988e-11
1.35041e-13
4.97187e-14
2.33592e-10
9.69621e-11
3.97991e-12
3.48009e-12
2.20235e-11
1.49884e-11
1.4595e-07
4.99366e-08
2.75424e-12
6.87044e-13
1.35004e-11
7.38008e-12
1.66598e-08
8.21526e-09
7.40509e-08
6.1284e-08
1.15519e-11
5.76623e-12
1.08801e-12
9.78032e-13
9.18991e-14
4.69909e-14
1.66486e-13
7.05345e-14
1.7451e-11
7.1425e-12
5.10369e-14
1.88084e-14
0.000377037
0.000182846
1.22912e-10
7.19804e-11
2.15709e-14
1.27055e-14
1.95261e-14
8.71468e-15
6.07951e-12
2.92964e-12
1.07678e-10
6.95804e-11
5.08115e-14
2.77257e-14
7.71017e-12
3.56888e-12
7.36275e-14
3.50612e-14
1.7509e-11
1.26001e-11
2.49377e-11
2.06532e-11
1.37373e-14
7.93768e-15
1.21548e-08
1.07525e-08
8.69785e-09
3.70118e-09
3.83462e-12
1.62047e-12
3.63974e-14
1.11535e-14
3.2068e-12
1.85642e-12
7.06337e-13
2.72477e-13
7.69282e-12
3.38823e-12
9.24858e-15
3.69881e-15
1.72334e-14
1.52308e-14
3.04002e-13
1.86689e-13
2.21918e-12
1.73686e-12
1.16592e-14
5.54071e-15
8.14999e-15
1.87315e-15
5.05599e-15
3.97403e-15
3.01557e-14
1.59941e-14
2.10652e-15
1.30195e-15
1.78521e-12
1.12772e-12
0.000239686
0.000174593
8.20598e-09
4.00712e-09
4.76303e-09
3.52268e-09
1.98598e-12
9.61692e-13
0.000203664
0.000132663
3.4542e-15
3.17038e-15
4.69606e-09
3.753e-09
5.82279e-15
2.02449e-15
2.29482e-15
1.55877e-15
1.8851e-11
7.51779e-12
1.8281e-14
1.26368e-14
3.01197e-15
2.47927e-15
1.98871e-13
9.34477e-14
1.40529e-15
7.0442e-16
4.05111e-15
2.51355e-15
4.49595e-12
3.43652e-12
8.4735e-11
6.17498e-11
1.12798e-12
8.17199e-13
9.26677e-12
7.18475e-12
5.60297e-08
3.7174e-08
3.69126e-12
2.25047e-12
1.10758e-13
8.15664e-14
8.28307e-16
6.02541e-16
