# vtk DataFile Version 3.0
Tree
ASCII
DATASET POLYDATA
POINTS 400 float
0 0 0
0.0284882 -0.117668 0
0.0142441 -0.0588341 0
-0.084345 -0.124206 0
-0.0350505 -0.0915202 0
-0.0273036 -0.241736 0
-0.0311771 -0.166628 0
0.117199 -0.220428 0
0.0213661 -0.0882512 0
0.135396 -0.10402 0
0.043011 -0.193528 0
0.0349492 -0.342009 0
-0.0292403 -0.204182 0
-0.117832 -0.330229 0
-0.0735363 -0.267206 0
-0.179759 -0.212589 0
0.0389801 -0.267768 0
0.160808 -0.339847 0
-0.0956843 -0.298717 0
-0.048139 -0.430705 0
0.0801051 -0.206978 0
0.220389 -0.188734 0
0.0998941 -0.303808 0
0.0814013 -0.441234 0
-0.0719116 -0.364711 0
-0.172102 -0.437499 0
0.0906477 -0.372521 0
0.00727948 -0.523416 0
-0.126648 -0.239898 0
-0.265852 -0.294257 0
0.0952709 -0.338164 0
0.263934 -0.381994 0
-0.0596977 -0.107863 0
-0.191587 -0.074087 0
0.0489636 -0.447968 0
0.138351 -0.56244 0
0.179602 -0.360079 0
0.299555 -0.265445 0
0.0281215 -0.485692 0
-0.115071 -0.608692 0
-0.122007 -0.401105 0
-0.289075 -0.454097 0
-0.19625 -0.267077 0
-0.277282 -0.150056 0
0.221768 -0.371037 0
0.280042 -0.52312 0
0.0936572 -0.505204 0
0.0923574 -0.673534 0
-0.205541 -0.427601 0
-0.202383 -0.549763 0
0.116004 -0.533822 0
0.222334 -0.602997 0
0.0930073 -0.589369 0
-0.00402968 -0.730827 0
-0.203962 -0.488682 0
-0.310108 -0.577879 0
-0.247308 -0.440849 0
-0.373386 -0.341752 0
-0.203173 -0.519222 0
-0.161602 -0.71502 0
0.242851 -0.376516 0
0.382741 -0.367846 0
0.0926824 -0.631451 0
0.150796 -0.768337 0
0.312796 -0.372181 0
0.378641 -0.48498 0
0.121739 -0.699894 0
0.265795 -0.727434 0
-0.310347 -0.3913 0
-0.40228 -0.506301 0
0.136267 -0.734116 0
0.0507561 -0.829893 0
-0.182387 -0.617121 0
-0.309067 -0.706165 0
0.193767 -0.713664 0
0.358408 -0.626659 0
0.0935118 -0.782004 0
-0.114523 -0.865454 0
0.239578 -0.312762 0
0.320589 -0.146422 0
-0.245727 -0.661643 0
-0.239256 -0.833567 0
-0.236766 -0.208567 0
-0.383091 -0.212896 0
-0.277397 -0.683904 0
-0.42801 -0.607839 0
0.229781 -0.720549 0
0.234224 -0.846931 0
-0.356314 -0.448801 0
-0.458845 -0.405007 0
0.0721339 -0.805948 0
0.120065 -0.917746 0
0.345718 -0.42858 0
0.481336 -0.488055 0
0.0960994 -0.861847 0
0.0157773 -0.975221 0
0.276087 -0.670161 0
0.431493 -0.73076 0
0.35379 -0.700461 0
0.478282 -0.61476 0
-0.242491 -0.747605 0
-0.350096 -0.867451 0
-0.296294 -0.807528 0
-0.213008 -0.965938 0
0.108082 -0.889797 0
0.234804 -0.966429 0
-0.352704 -0.645872 0
-0.467353 -0.731224 0
0.392641 -0.71561 0
0.381685 -0.863774 0
0.347768 -0.370013 0
0.462237 -0.276154 0
0.0559384 -0.918534 0
-0.0975909 -1.05486 0
0.150247 -0.197856 0
0.241806 -0.0725222 0
0.171443 -0.928113 0
0.14636 -1.04655 0
-0.410028 -0.688548 0
-0.537779 -0.56299 0
-0.323195 -0.83749 0
-0.434195 -0.863826 0
-0.336646 -0.85247 0
-0.348662 -0.981655 0
-0.0208263 -0.986697 0
0.0337676 -1.10272 0
0.412067 -0.723185 0
0.531732 -0.702284 0
0.158901 -0.987331 0
0.344116 -1.01624 0
-0.407579 -0.426904 0
-0.483043 -0.312355 0
-0.0592086 -1.02078 0
-0.240909 -1.09225 0
-0.433212 -0.415956 0
-0.559521 -0.444929 0
-0.473904 -0.625769 0
-0.565388 -0.691242 0
0.413527 -0.458318 0
0.540978 -0.390793 0
-0.0783998 -1.03782 0
-0.0714757 -1.15661 0
0.00647068 -1.04471 0
0.125329 -1.18415 0
0.4719 -0.712734 0
0.519105 -0.829952 0
0.477252 -0.424555 0
0.58818 -0.536456 0
-0.342654 -0.917063 0
-0.462271 -1.00871 0
-0.150059 -1.05652 0
-0.191246 -1.18502 0
0.495503 -0.771343 0
0.489358 -0.969301 0
-0.402462 -0.962888 0
-0.385807 -1.1032 0
-0.432366 -0.985801 0
-0.547033 -0.893548 0
0.251509 -1.00179 0
0.335534 -1.14211 0
0.0659 -1.11443 0
0.0353563 -1.25259 0
0.293521 -1.07195 0
0.459247 -1.08165 0
-0.170652 -1.12077 0
-0.299036 -1.20904 0
0.405003 -0.323084 0
0.401749 -0.199972 0
0.314528 -1.10703 0
0.244791 -1.235 0
0.507304 -0.800648 0
0.638916 -0.789022 0
0.501816 -0.707509 0
0.6538 -0.616228 0
0.57311 -0.794835 0
0.608185 -0.901265 0
-0.519646 -0.658506 0
-0.631119 -0.805617 0
-0.180949 -1.15289 0
-0.104452 -1.28567 0
0.0506281 -1.18351 0
0.154729 -1.31436 0
-0.4897 -0.939675 0
-0.589615 -1.0122 0
-0.505841 -0.594379 0
-0.648012 -0.523438 0
-0.576927 -0.558909 0
-0.673262 -0.631899 0
-0.539657 -0.975939 0
-0.533199 -1.11736 0
0.27966 -1.17102 0
0.374278 -1.27123 0
0.102678 -1.24894 0
0.0406234 -1.3869 0
0.326969 -1.22112 0
0.46905 -1.20154 0
0.590648 -0.84805 0
0.588454 -1.05676 0
-0.142701 -1.21928 0
-0.216627 -1.31458 0
-0.179664 -1.26693 0
-0.335605 -1.31745 0
-0.496366 -0.430442 0
-0.601586 -0.359707 0
0.0716509 -1.31792 0
-0.0659324 -1.42947 0
-0.257634 -1.29219 0
-0.433429 -1.2425 0
0.350624 -1.24617 0
0.246914 -1.38875 0
0.532716 -0.480506 0
0.674379 -0.468377 0
0.599416 -0.874657 0
0.717012 -0.871422 0
-0.536428 -1.04665 0
-0.632839 -1.09148 0
-0.575383 -0.732062 0
-0.72663 -0.73906 0
0.398009 -1.21133 0
0.572837 -1.15166 0
0.606013 -0.791928 0
0.721231 -0.719044 0
-0.564636 -0.994072 0
-0.712833 -0.91041 0
-0.296619 -1.30482 0
-0.282991 -1.43059 0
-0.198145 -1.29075 0
-0.166868 -1.40596 0
0.0561372 -1.35241 0
0.0987732 -1.5073 0
0.485423 -1.1815 0
0.565607 -1.27028 0
0.298769 -1.31746 0
0.378944 -1.40656 0
0.43362 -0.299619 0
0.562558 -0.257187 0
-0.316112 -1.31114 0
-0.43735 -1.39602 0
0.338856 -1.36201 0
0.293069 -1.4899 0
-0.289805 -1.36771 0
-0.154355 -1.52 0
0.589551 -0.952407 0
0.715683 -1.04762 0
-0.534813 -1.08201 0
-0.60548 -1.25817 0
0.663622 -0.755486 0
0.757515 -0.603612 0
0.0774552 -1.42986 0
-0.0441987 -1.57335 0
-0.612469 -0.541174 0
-0.702884 -0.427563 0
0.3589 -1.38428 0
0.502221 -1.4043 0
-0.286398 -1.39915 0
-0.385089 -1.4969 0
0.525515 -1.22589 0
0.679149 -1.23094 0
-0.376731 -1.35358 0
-0.549693 -1.38105 0
-0.638735 -0.952241 0
-0.737418 -1.04699 0
-0.445311 -0.369629 0
-0.510488 -0.201529 0
0.652617 -1.00001 0
0.785378 -0.948112 0
-0.22208 -1.44385 0
-0.259677 -1.58246 0
0.692427 -0.737265 0
0.817855 -0.807713 0
0.0881142 -1.46858 0
0.196361 -1.60367 0
-0.675784 -0.931326 0
-0.783716 -0.825202 0
-0.570147 -1.17009 0
-0.728676 -1.21509 0
-0.657677 -0.484368 0
-0.772421 -0.567269 0
-0.240878 -1.51316 0
-0.145044 -1.63719 0
0.430561 -1.39429 0
0.435521 -1.53132 0
0.545561 -1.24809 0
0.626772 -1.39381 0
0.142238 -1.53612 0
0.0453517 -1.65639 0
0.433041 -1.4628 0
0.533232 -1.49794 0
0.603548 -0.474441 0
0.645784 -0.354026 0
-0.72975 -0.878264 0
-0.848884 -0.939281 0
0.434281 -1.49706 0
0.353089 -1.59762 0
-0.715049 -0.525819 0
-0.834068 -0.665236 0
-0.250278 -1.54781 0
-0.383865 -1.62359 0
-0.309929 -0.210732 0
-0.401182 -0.1015 0
-0.463212 -1.36732 0
-0.52607 -1.50666 0
-0.649411 -1.19259 0
-0.675841 -1.37893 0
0.0937948 -1.59626 0
-0.0687342 -1.72028 0
0.0695732 -1.62632 0
0.158366 -1.71084 0
0.718997 -0.974062 0
0.807091 -1.11679 0
0.763044 -1.04542 0
0.76362 -1.1934 0
-0.317071 -1.5857 0
-0.29687 -1.70718 0
0.755141 -0.772489 0
0.850547 -0.688907 0
-0.789317 -0.908772 0
-0.858756 -1.07779 0
-0.494641 -1.43699 0
-0.633264 -1.51801 0
0.11397 -1.66858 0
0.282811 -1.73693 0
-0.756733 -0.851733 0
-0.881819 -0.771804 0
0.0125303 -1.65827 0
0.0406003 -1.79246 0
0.586167 -1.32095 0
0.737891 -1.34327 0
0.785068 -1.0811 0
0.882976 -1.02407 0
0.393685 -1.54734 0
0.496508 -1.67144 0
-0.306971 -1.64644 0
-0.486592 -1.66545 0
0.606469 -1.35738 0
0.649331 -1.55679 0
-0.662626 -1.28576 0
-0.790582 -1.36668 0
-0.028102 -1.68928 0
-0.0966116 -1.83073 0
0.624666 -0.414233 0
0.788069 -0.471115 0
-0.301921 -1.67681 0
-0.226632 -1.81452 0
-0.689043 -1.20384 0
-0.745017 -1.13082 0
-0.71703 -1.16733 0
-0.879985 -1.21709 0
0.802844 -0.730698 0
0.916946 -0.843184 0
0.6279 -1.45708 0
0.735591 -1.44861 0
0.763332 -1.11941 0
0.893404 -1.21373 0
0.445096 -1.60939 0
0.424805 -1.78455 0
0.826695 -0.709803 0
0.853824 -0.559547 0
-0.264276 -1.74566 0
-0.371144 -1.79317 0
0.19839 -1.70276 0
0.180684 -1.85133 0
-0.4779 -0.285579 0
-0.610985 -0.241265 0
-0.563953 -1.4775 0
-0.644438 -1.65941 0
0.434951 -1.69697 0
0.558576 -1.72767 0
-0.726604 -1.32622 0
-0.779562 -1.47748 0
0.189537 -1.77704 0
0.294174 -1.87231 0
-0.0623568 -1.76 0
-0.0163113 -1.91514 0
0.681745 -1.45285 0
0.856763 -1.39509 0
-0.824037 -0.993283 0
-0.960303 -0.978221 0
-0.396781 -1.65594 0
-0.546876 -1.74901 0
0.828368 -1.16657 0
0.930878 -1.12227 0
-0.245454 -1.78009 0
-0.277714 -1.91687 0
0.769254 -1.42397 0
0.801097 -1.54784 0
-0.758593 -1.34645 0
-0.921138 -1.32273 0
0.638616 -1.50693 0
0.710006 -1.63976 0
0.860886 -1.19015 0
0.867721 -1.30395 0
0.241856 -1.82468 0
0.223646 -1.95252 0
-0.261584 -1.84848 0
-0.155674 -1.94726 0
-0.841396 -1.03554 0
-0.983004 -1.14567 0
-0.471828 -1.70248 0
-0.489314 -1.8633 0
LINES 399 1197
2 8 1
2 0 2
2 32 3
2 2 4
2 12 5
2 4 6
2 20 7
2 2 8
2 8 9
2 6 10
2 16 11
2 6 12
2 18 13
2 12 14
2 28 15
2 10 16
2 22 17
2 14 18
2 24 19
2 10 20
2 114 21
2 16 22
2 26 23
2 18 24
2 40 25
2 30 26
2 38 27
2 14 28
2 42 29
2 22 30
2 60 31
2 4 32
2 32 33
2 26 34
2 50 35
2 30 36
2 78 37
2 34 38
2 38 39
2 24 40
2 56 41
2 28 42
2 82 43
2 36 44
2 44 45
2 34 46
2 62 47
2 40 48
2 58 49
2 46 50
2 50 51
2 46 52
2 52 53
2 48 54
2 54 55
2 48 56
2 68 57
2 54 58
2 72 59
2 44 60
2 110 61
2 52 62
2 70 63
2 60 64
2 92 65
2 62 66
2 86 67
2 56 68
2 88 69
2 66 70
2 90 71
2 58 72
2 84 73
2 66 74
2 96 75
2 70 76
2 76 77
2 36 78
2 78 79
2 72 80
2 100 81
2 42 82
2 298 83
2 80 84
2 106 85
2 74 86
2 86 87
2 68 88
2 134 89
2 76 90
2 104 91
2 64 92
2 138 93
2 90 94
2 112 95
2 74 96
2 126 97
2 96 98
2 98 99
2 80 100
2 122 101
2 100 102
2 102 103
2 94 104
2 116 105
2 84 106
2 118 107
2 98 108
2 108 109
2 64 110
2 234 111
2 94 112
2 140 113
2 20 114
2 114 115
2 104 116
2 128 117
2 106 118
2 184 119
2 102 120
2 120 121
2 120 122
2 148 123
2 112 124
2 142 125
2 108 126
2 172 127
2 116 128
2 158 129
2 88 130
2 262 131
2 124 132
2 150 133
2 130 134
2 202 135
2 118 136
2 176 137
2 92 138
2 146 139
2 132 140
2 140 141
2 124 142
2 160 143
2 126 144
2 170 145
2 138 146
2 210 147
2 122 148
2 156 149
2 132 150
2 178 151
2 144 152
2 152 153
2 148 154
2 154 155
2 154 156
2 182 157
2 128 158
2 168 159
2 142 160
2 180 161
2 158 162
2 162 163
2 150 164
2 164 165
2 110 166
2 166 167
2 162 168
2 190 169
2 152 170
2 220 171
2 144 172
2 172 173
2 170 174
2 212 175
2 136 176
2 216 177
2 164 178
2 198 179
2 160 180
2 192 181
2 156 182
2 222 183
2 136 184
2 250 185
2 184 186
2 186 187
2 182 188
2 244 189
2 168 190
2 208 191
2 180 192
2 228 193
2 190 194
2 218 195
2 174 196
2 242 197
2 178 198
2 226 199
2 198 200
2 236 201
2 134 202
2 202 203
2 192 204
2 204 205
2 200 206
2 206 207
2 194 208
2 232 209
2 146 210
2 288 211
2 196 212
2 212 213
2 188 214
2 214 215
2 176 216
2 216 217
2 194 218
2 230 219
2 174 220
2 268 221
2 188 222
2 272 223
2 206 224
2 254 225
2 200 226
2 226 227
2 204 228
2 270 229
2 218 230
2 282 231
2 208 232
2 252 233
2 166 234
2 234 235
2 224 236
2 258 237
2 232 238
2 238 239
2 224 240
2 266 241
2 196 242
2 264 243
2 214 244
2 274 245
2 220 246
2 246 247
2 228 248
2 248 249
2 186 250
2 276 251
2 238 252
2 280 253
2 240 254
2 254 255
2 230 256
2 256 257
2 236 258
2 300 259
2 222 260
2 260 261
2 130 262
2 362 263
2 242 264
2 308 265
2 240 266
2 296 267
2 246 268
2 314 269
2 248 270
2 284 271
2 260 272
2 322 273
2 244 274
2 344 275
2 250 276
2 294 277
2 266 278
2 278 279
2 252 280
2 292 281
2 256 282
2 334 283
2 270 284
2 306 285
2 280 286
2 286 287
2 210 288
2 340 289
2 272 290
2 316 291
2 286 292
2 330 293
2 276 294
2 294 295
2 278 296
2 312 297
2 82 298
2 298 299
2 258 300
2 318 301
2 274 302
2 336 303
2 284 304
2 338 305
2 304 306
2 320 307
2 264 308
2 328 309
2 308 310
2 352 311
2 296 312
2 342 313
2 268 314
2 356 315
2 290 316
2 396 317
2 300 318
2 364 319
2 306 320
2 360 321
2 290 322
2 322 323
2 304 324
2 324 325
2 282 326
2 326 327
2 310 328
2 328 329
2 292 330
2 354 331
2 312 332
2 378 333
2 326 334
2 388 335
2 302 336
2 386 337
2 324 338
2 372 339
2 288 340
2 340 341
2 332 342
2 382 343
2 302 344
2 346 345
2 344 346
2 346 347
2 314 348
2 348 349
2 334 350
2 374 351
2 310 352
2 390 353
2 330 354
2 366 355
2 348 356
2 356 357
2 342 358
2 358 359
2 320 360
2 370 361
2 262 362
2 362 363
2 318 364
2 364 365
2 354 366
2 366 367
2 336 368
2 368 369
2 360 370
2 392 371
2 338 372
2 372 373
2 350 374
2 384 375
2 316 376
2 376 377
2 332 378
2 398 379
2 352 380
2 380 381
2 358 382
2 394 383
2 374 384
2 384 385
2 368 386
2 386 387
2 350 388
2 388 389
2 380 390
2 390 391
2 370 392
2 392 393
2 382 394
2 394 395
2 376 396
2 396 397
2 378 398
2 398 399
CELL_DATA 399
SCALARS radius float
LOOKUP_TABLE default
0.545493
0.60956
0.150559
0.165974
0.0382588
0.0418677
0.0237816
0.605431
0.390615
0.0255506
0.00851451
0.0384196
0.00516475
0.00891573
0.00787734
0.00855905
0.00212885
0.00519731
0.00136399
0.0252264
0.0118749
0.00213535
0.000304869
0.001379
0.000435969
0.000306204
6.47827e-05
0.00828321
0.00399953
0.000445843
0.000153325
0.165082
0.102785
7.20545e-05
2.05928e-05
0.000391298
0.000314393
7.12484e-05
4.47809e-05
0.00043915
0.000113139
0.00430013
0.00228997
0.000234108
0.000208774
2.31556e-05
2.32325e-06
0.00012225
3.00136e-05
2.29892e-05
1.50625e-05
6.42826e-06
6.32455e-06
6.46115e-05
6.23412e-05
0.000115911
4.57524e-05
3.01638e-05
7.31779e-06
0.000155098
4.31512e-05
2.33007e-06
3.68682e-07
5.01981e-05
3.1936e-05
4.80232e-07
3.41645e-07
4.77792e-05
2.25778e-05
3.69679e-07
3.27777e-08
7.41647e-06
2.27217e-06
3.91988e-07
1.63955e-07
7.41491e-08
7.19215e-08
0.000361093
0.00025202
2.52339e-06
1.5312e-06
0.00249529
0.00129965
2.31126e-06
8.20381e-07
3.8175e-07
2.50699e-07
2.36926e-05
1.01078e-05
3.29117e-08
6.77085e-09
3.32867e-05
1.54486e-05
7.56954e-09
4.84031e-09
1.66277e-07
1.41296e-08
5.74875e-08
5.59625e-08
1.54961e-06
1.25374e-07
5.07908e-07
4.9171e-07
6.82566e-09
1.92981e-09
8.50845e-07
3.89474e-07
2.45086e-08
2.27878e-08
4.47493e-05
1.42435e-05
4.87298e-09
9.03401e-10
0.0137564
0.00975663
1.96606e-09
7.3568e-10
3.99626e-07
1.22611e-07
2.2983e-07
2.16329e-07
1.26333e-07
3.52679e-08
1.32232e-09
1.0695e-09
1.42413e-08
3.67773e-09
7.44526e-10
2.40703e-10
1.21428e-05
7.80639e-06
1.00896e-09
3.77921e-10
1.06185e-05
4.68113e-06
1.67998e-07
1.31173e-07
1.62741e-05
8.08331e-06
9.9012e-10
6.15659e-10
1.08718e-09
3.84591e-10
4.07039e-09
9.56098e-10
8.54148e-06
4.23381e-06
3.57191e-08
6.10463e-09
3.83664e-10
7.00953e-11
1.64479e-09
1.52495e-09
1.19472e-08
1.13687e-08
6.17911e-09
1.99378e-09
2.44049e-10
4.23758e-11
3.95055e-10
1.64903e-10
8.38639e-11
7.99479e-11
1.35692e-10
1.28947e-10
2.10002e-05
1.74146e-05
4.28769e-11
1.37488e-11
9.66727e-10
2.68458e-10
3.97883e-09
2.36602e-09
3.08892e-10
1.80359e-10
1.39714e-07
6.52855e-08
7.07643e-11
2.10918e-11
1.68344e-10
6.47129e-11
2.03512e-09
6.98652e-10
1.2629e-07
3.59492e-08
5.54993e-08
4.89908e-08
7.95429e-10
3.04059e-10
1.39788e-11
4.31714e-12
6.59327e-11
1.45666e-11
5.09984e-12
3.54185e-12
2.07233e-10
9.65957e-11
2.15123e-11
7.34825e-12
8.30305e-12
1.58203e-12
5.48014e-06
3.95792e-06
2.49947e-11
2.31578e-11
3.24821e-12
3.07899e-12
4.38798e-12
1.53743e-12
4.56287e-06
2.43293e-06
1.98885e-10
1.25993e-10
5.27207e-10
4.8886e-10
7.77615e-08
5.76852e-08
3.63804e-12
1.4969e-12
2.74009e-10
7.41382e-11
7.09223e-10
1.52054e-10
1.7193e-12
8.36626e-13
8.13393e-12
5.20932e-12
1.47296e-11
2.80982e-12
1.54934e-12
4.67874e-13
1.59084e-12
4.64821e-13
1.58474e-05
1.02923e-05
1.61479e-12
5.98832e-13
7.31932e-13
6.58001e-13
9.55213e-13
4.40102e-13
1.01082e-10
4.86447e-11
3.09703e-10
1.12324e-10
1.06999e-10
9.17538e-11
4.71662e-12
4.33676e-12
3.76489e-08
1.74197e-08
4.75075e-13
1.81897e-13
9.19965e-13
5.7791e-13
7.14633e-13
6.36264e-13
6.30869e-13
3.06719e-13
2.50484e-10
2.28371e-10
8.40223e-06
4.0892e-06
5.08508e-11
2.45203e-11
4.53009e-13
1.19877e-13
7.67755e-11
3.33833e-11
2.85884e-12
1.0266e-12
1.56126e-10
5.32207e-11
1.16826e-10
4.5771e-11
1.90437e-08
1.02844e-08
1.97655e-13
1.80625e-13
1.89397e-13
5.80332e-14
4.75313e-13
1.09456e-13
1.05714e-12
3.84046e-13
9.18761e-14
8.22543e-14
2.67336e-06
1.47266e-06
6.61963e-11
4.18361e-11
6.02794e-14
2.69962e-14
1.1746e-08
8.10697e-09
1.22294e-13
4.56554e-14
0.00152237
0.00110057
3.31235e-13
1.7973e-13
5.6177e-11
3.53701e-11
4.63355e-13
2.14632e-13
3.98634e-13
1.80359e-13
2.53973e-11
9.21436e-12
1.17908e-11
7.40079e-12
4.73758e-14
1.85673e-14
3.5583e-11
1.45385e-11
4.40101e-11
1.53881e-11
1.95629e-13
1.03726e-13
1.88549e-13
8.69794e-14
5.8947e-11
3.78166e-11
3.30604e-13
2.88851e-13
1.70577e-13
1.52573e-13
1.04876e-11
7.18675e-12
2.86775e-14
1.449e-14
2.23529e-14
1.47978e-14
1.12175e-13
3.40536e-14
3.78863e-11
1.53646e-11
2.29163e-13
1.10726e-13
1.67568e-06
1.1476e-06
1.90727e-14
5.41272e-15
4.97192e-11
2.69871e-11
3.0006e-11
1.94531e-11
1.9874e-11
1.56476e-11
4.64432e-14
3.29657e-14
7.86031e-12
2.78928e-12
1.57536e-14
7.90048e-15
1.58983e-11
9.81456e-12
8.1283e-15
7.03206e-15
9.42067e-14
5.137e-14
4.89734e-06
3.6613e-06
1.18904e-13
8.2675e-14
9.53666e-15
7.20618e-15
2.16381e-11
1.74327e-11
5.62567e-14
2.96077e-14
1.29011e-13
9.24318e-14
3.50813e-14
1.60366e-14
2.2906e-11
1.91915e-11
1.61735e-14
8.46083e-15
4.31409e-12
3.65099e-12
5.74179e-15
2.68814e-15
1.94424e-14
1.47748e-14
1.69077e-11
1.06451e-11
3.84854e-14
2.59681e-14
3.16233e-12
2.14894e-12
3.4893e-14
2.54728e-14
3.13178e-15
2.24349e-15
1.70425e-11
1.09313e-11
9.96762e-15
7.27255e-15
