# vtk DataFile Version 3.0
Tree
ASCII
DATASET POLYDATA
POINTS 400 float
0 0 0
0.0284882 -0.117668 0
0.0142441 -0.0588341 0
-0.084345 -0.124206 0
-0.0350505 -0.0915202 0
-0.0273036 -0.241736 0
-0.0311771 -0.166628 0
0.117199 -0.220428 0
0.0213661 -0.0882512 0
0.135396 -0.10402 0
0.043011 -0.193528 0
0.0349492 -0.342009 0
-0.0292403 -0.204182 0
-0.117832 -0.330229 0
-0.0735363 -0.267206 0
-0.179759 -0.212589 0
0.0389801 -0.267768 0
0.160808 -0.339847 0
-0.0956843 -0.298717 0
-0.048139 -0.430705 0
0.0801051 -0.206978 0
0.220389 -0.188734 0
0.0998941 -0.303808 0
0.0814013 -0.441234 0
-0.0719116 -0.364711 0
-0.172102 -0.437499 0
0.0906477 -0.372521 0
0.00727948 -0.523416 0
-0.126648 -0.239898 0
-0.265852 -0.294257 0
0.0952709 -0.338164 0
0.263934 -0.381994 0
-0.0596977 -0.107863 0
-0.191587 -0.074087 0
0.0489636 -0.447968 0
0.138351 -0.56244 0
0.179602 -0.360079 0
0.299555 -0.265445 0
0.0281215 -0.485692 0
-0.115071 -0.608692 0
-0.19625 -0.267077 0
-0.289075 -0.454097 0
-0.231051 -0.280667 0
-0.277282 -0.150056 0
0.221768 -0.371037 0
0.280042 -0.52312 0
0.0936572 -0.505204 0
0.0923574 -0.673534 0
-0.0434748 -0.547192 0
-0.202383 -0.549763 0
0.0930073 -0.589369 0
0.222334 -0.602997 0
0.0926824 -0.631451 0
-0.00402968 -0.730827 0
-0.079273 -0.577942 0
-0.310108 -0.577879 0
-0.242663 -0.360587 0
-0.373386 -0.341752 0
-0.0971721 -0.593317 0
-0.161602 -0.71502 0
0.239578 -0.312762 0
0.382741 -0.367846 0
0.0925199 -0.652493 0
0.150796 -0.768337 0
0.250905 -0.447078 0
0.378641 -0.48498 0
0.121658 -0.710415 0
0.265795 -0.727434 0
-0.129387 -0.654169 0
-0.276558 -0.722811 0
-0.265869 -0.407342 0
-0.399836 -0.506819 0
0.136227 -0.739376 0
0.0514562 -0.84134 0
0.314773 -0.466029 0
0.358408 -0.626659 0
-0.145494 -0.684594 0
-0.114523 -0.865454 0
-0.202972 -0.68849 0
-0.379983 -0.663835 0
0.193726 -0.718924 0
0.22835 -0.835743 0
-0.254167 -0.215362 0
-0.383091 -0.212896 0
0.269567 -0.289103 0
0.325686 -0.146769 0
-0.239765 -0.705651 0
-0.257772 -0.849277 0
-0.332853 -0.45708 0
-0.458845 -0.405007 0
0.0938415 -0.790358 0
0.120065 -0.917746 0
0.106953 -0.854052 0
-0.0241425 -0.933541 0
-0.248769 -0.777464 0
-0.361576 -0.792663 0
0.211038 -0.777333 0
0.431493 -0.73076 0
0.33659 -0.546344 0
0.491451 -0.574799 0
-0.395849 -0.431044 0
-0.48986 -0.589558 0
0.113509 -0.885899 0
0.249556 -0.936842 0
-0.25327 -0.813371 0
-0.215046 -0.975181 0
-0.305172 -0.785064 0
-0.482733 -0.70866 0
0.346707 -0.475504 0
0.498798 -0.403465 0
-0.234158 -0.894276 0
-0.0967311 -1.04557 0
0.0414053 -0.893797 0
0.0410904 -1.04629 0
-0.243714 -0.853823 0
-0.355533 -0.919292 0
0.321265 -0.754047 0
0.383744 -0.878375 0
0.181532 -0.911371 0
0.198444 -1.04874 0
0.297626 -0.217936 0
0.427087 -0.248212 0
-0.393953 -0.746862 0
-0.430582 -0.863399 0
0.414021 -0.560571 0
0.527562 -0.696776 0
0.189988 -0.980057 0
0.341458 -1.0084 0
0.352505 -0.816211 0
0.491054 -0.829703 0
-0.224602 -0.934729 0
-0.310202 -1.01775 0
-0.427347 -0.418025 0
-0.477337 -0.27794 0
-0.165445 -0.969921 0
-0.186481 -1.10926 0
0.194216 -1.0144 0
0.0992695 -1.15328 0
-0.412268 -0.80513 0
-0.535282 -0.812421 0
0.146743 -1.08384 0
-0.0129595 -1.17723 0
-0.443096 -0.411516 0
-0.577201 -0.450262 0
-0.473775 -0.808776 0
-0.592231 -0.655376 0
0.421779 -0.822957 0
0.445839 -1.00348 0
0.265723 -0.994227 0
0.307078 -1.10753 0
-0.267402 -0.97624 0
-0.465342 -1.01542 0
0.470791 -0.628674 0
0.605216 -0.548411 0
-0.288802 -0.996996 0
-0.32356 -1.1498 0
0.123006 -1.11856 0
0.218904 -1.2056 0
0.538003 -0.588543 0
0.598616 -0.454619 0
0.433809 -0.913218 0
0.613516 -0.79516 0
0.311656 -0.182352 0
0.2462 -0.059261 0
-0.306181 -1.0734 0
-0.437359 -1.11427 0
-0.504528 -0.810598 0
-0.541467 -0.930919 0
-0.175963 -1.03959 0
-0.12754 -1.24367 0
0.170955 -1.16208 0
0.104455 -1.27273 0
-0.151751 -1.14163 0
-0.244548 -1.24209 0
0.286401 -1.05088 0
0.452089 -1.11799 0
0.523662 -0.854189 0
0.602428 -0.928023 0
0.568589 -0.824675 0
0.651491 -0.703534 0
0.369245 -1.08443 0
0.401217 -1.21417 0
-0.139646 -1.19265 0
-0.049614 -1.32342 0
0.137705 -1.2174 0
0.284344 -1.29044 0
-0.0946299 -1.25804 0
0.0474321 -1.35837 0
-0.533003 -0.732076 0
-0.670522 -0.79514 0
0.422752 -0.439485 0
0.536969 -0.292857 0
-0.510148 -0.430889 0
-0.669779 -0.558777 0
0.410667 -1.10121 0
0.546875 -1.06978 0
-0.37177 -1.09383 0
-0.589268 -1.05115 0
-0.404565 -1.10405 0
-0.42582 -1.21659 0
0.431378 -1.1096 0
0.496899 -1.20615 0
-0.415192 -1.16032 0
-0.337262 -1.32396 0
-0.522998 -0.870759 0
-0.657118 -0.945385 0
-0.0235989 -1.3082 0
-0.0662517 -1.43639 0
0.211025 -1.25392 0
0.158127 -1.41074 0
-0.0721219 -1.29073 0
-0.213016 -1.36622 0
-0.420506 -1.18845 0
-0.521007 -1.22962 0
-0.470756 -1.20904 0
-0.585059 -1.1491 0
0.591053 -0.809917 0
0.723682 -0.879528 0
0.657367 -0.844723 0
0.656154 -1.03964 0
0.247684 -1.27218 0
0.348622 -1.39385 0
0.57161 -0.568477 0
0.719443 -0.627245 0
-0.543675 -0.440576 0
-0.602465 -0.313633 0
0.464138 -1.15788 0
0.613493 -1.17079 0
-0.0449253 -1.37229 0
0.0387765 -1.47053 0
-0.265724 -0.182709 0
-0.473513 -0.175375 0
-0.601762 -0.763608 0
-0.743039 -0.690301 0
0.298153 -1.33301 0
0.256311 -1.48745 0
0.480519 -1.18201 0
0.489311 -1.33804 0
-0.0555885 -1.40434 0
-0.206857 -1.49717 0
-0.532233 -0.900839 0
-0.730676 -1.03239 0
-0.495882 -1.21933 0
-0.467315 -1.34565 0
-0.589964 -0.494833 0
-0.709786 -0.457618 0
-0.481598 -1.28249 0
-0.355955 -1.45242 0
0.690525 -0.862125 0
0.772471 -0.718843 0
-0.0609201 -1.42036 0
0.103118 -1.57606 0
-0.48874 -1.25091 0
-0.615246 -1.27847 0
-0.672401 -0.726955 0
-0.785207 -0.784033 0
0.0210992 -1.49821 0
-0.0449003 -1.59832 0
0.479861 -0.366171 0
0.631228 -0.313867 0
0.645526 -0.597861 0
0.730539 -0.470234 0
0.656761 -0.942179 0
0.731369 -1.12075 0
-0.631454 -0.966616 0
-0.779087 -0.92328 0
0.484915 -1.26003 0
0.622352 -1.30748 0
0.487113 -1.29904 0
0.546545 -1.42505 0
-0.418777 -1.36746 0
-0.543631 -1.44352 0
-0.131223 -1.45076 0
-0.214726 -1.61898 0
0.516829 -1.36204 0
0.455828 -1.52491 0
0.277232 -1.41023 0
0.310773 -1.59214 0
0.694065 -1.03146 0
0.808649 -0.957013 0
-0.681065 -0.999504 0
-0.709629 -1.14678 0
-0.527908 -1.17907 0
-0.726867 -1.25374 0
-0.70772 -0.708628 0
-0.793621 -0.571653 0
-0.387366 -1.40994 0
-0.365814 -1.57042 0
-0.0119006 -1.54827 0
0.0382075 -1.65815 0
0.538816 -1.16433 0
0.706583 -1.28185 0
-0.57307 -0.377104 0
-0.543118 -0.223785 0
0.0131535 -1.60321 0
0.15366 -1.68207 0
0.688033 -0.534047 0
0.793164 -0.564409 0
0.707104 -0.870827 0
0.812087 -0.8606 0
-0.551993 -1.26469 0
-0.673614 -1.37438 0
-0.37659 -1.49018 0
-0.48457 -1.55176 0
0.0256805 -1.63068 0
-0.0809911 -1.74372 0
-0.43058 -1.52097 0
-0.311089 -1.66242 0
0.751357 -0.994238 0
0.85798 -1.07289 0
0.000626448 -1.57574 0
0.267171 -1.69099 0
0.6227 -1.22309 0
0.800993 -1.23999 0
0.287692 -1.37162 0
0.376785 -1.68721 0
-0.695347 -1.07314 0
-0.858756 -1.07779 0
0.664641 -1.25247 0
0.709525 -1.41159 0
-0.777052 -1.07547 0
-0.828421 -1.23088 0
0.486329 -1.44348 0
0.612175 -1.52143 0
-0.457575 -1.53637 0
-0.617092 -1.54116 0
0.471078 -1.48419 0
0.493508 -1.66134 0
-0.817904 -1.07663 0
-0.894557 -0.860281 0
-0.471073 -1.54406 0
-0.485133 -1.66045 0
0.0834067 -1.64264 0
0.10074 -1.77564 0
-0.0276553 -1.6872 0
-0.204376 -1.74099 0
0.362357 -0.233074 0
0.455613 -0.135995 0
0.0920733 -1.70914 0
0.223416 -1.80623 0
-0.370834 -1.5917 0
-0.390109 -1.75448 0
-0.728804 -0.755494 0
-0.867891 -0.735864 0
0.731498 -0.790484 0
0.889722 -0.756776 0
0.482293 -1.57277 0
0.586258 -1.63048 0
0.323387 -1.36343 0
0.395604 -1.30597 0
-0.537334 -1.53877 0
-0.699565 -1.47696 0
-0.0543232 -1.71546 0
-0.00383356 -1.86318 0
-0.612804 -1.31954 0
-0.828193 -1.36042 0
-0.577213 -1.53997 0
-0.637356 -1.64117 0
-0.380472 -1.67309 0
-0.284423 -1.8396 0
0.157744 -1.75768 0
0.338578 -1.79571 0
0.804668 -1.03357 0
0.947581 -0.942306 0
0.687083 -1.33203 0
0.820579 -1.43788 0
-0.116016 -1.7141 0
-0.167775 -1.85065 0
0.753831 -1.38496 0
0.734478 -1.57122 0
-0.83833 -1.07721 0
-0.94077 -1.14789 0
0.81061 -0.77363 0
0.853688 -0.653142 0
-0.369618 -0.179042 0
-0.322978 -0.0594701 0
0.19058 -1.78196 0
0.172934 -1.91102 0
-0.607285 -1.59057 0
-0.565365 -1.76027 0
0.876125 -0.987936 0
0.950449 -1.20133 0
0.534276 -1.60162 0
0.467527 -1.8326 0
-0.856231 -0.968456 0
-0.961918 -1.01798 0
-0.62232 -1.61587 0
-0.763016 -1.57722 0
-0.332447 -1.75634 0
-0.393235 -1.87342 0
0.850166 -0.765203 0
0.957229 -0.833751 0
-0.362841 -1.81488 0
-0.206043 -1.95914 0
-0.0290784 -1.78932 0
-0.0712125 -1.97835 0
0.181757 -1.84649 0
0.331082 -1.92576 0
-0.88955 -1.11255 0
-0.929063 -1.33935 0
LINES 399 1197
2 8 1
2 0 2
2 32 3
2 2 4
2 12 5
2 4 6
2 20 7
2 2 8
2 8 9
2 6 10
2 16 11
2 6 12
2 18 13
2 12 14
2 28 15
2 10 16
2 22 17
2 14 18
2 24 19
2 10 20
2 20 21
2 16 22
2 26 23
2 18 24
2 24 25
2 30 26
2 38 27
2 14 28
2 42 29
2 22 30
2 44 31
2 4 32
2 32 33
2 26 34
2 46 35
2 30 36
2 84 37
2 34 38
2 58 39
2 28 40
2 70 41
2 40 42
2 230 43
2 36 44
2 64 45
2 34 46
2 62 47
2 38 48
2 48 49
2 46 50
2 50 51
2 50 52
2 52 53
2 48 54
2 54 55
2 40 56
2 56 57
2 54 58
2 76 59
2 36 60
2 60 61
2 52 62
2 72 63
2 44 64
2 108 65
2 62 66
2 80 67
2 58 68
2 86 69
2 56 70
2 88 71
2 66 72
2 90 73
2 64 74
2 98 75
2 68 76
2 76 77
2 68 78
2 78 79
2 66 80
2 96 81
2 42 82
2 82 83
2 60 84
2 162 85
2 78 86
2 104 87
2 70 88
2 142 89
2 72 90
2 102 91
2 90 92
2 112 93
2 86 94
2 106 95
2 80 96
2 116 97
2 74 98
2 124 99
2 88 100
2 100 101
2 92 102
2 118 103
2 94 104
2 130 105
2 94 106
2 122 107
2 74 108
2 190 109
2 114 110
2 134 111
2 92 112
2 112 113
2 104 114
2 114 115
2 96 116
2 128 117
2 102 118
2 136 119
2 84 120
2 336 121
2 106 122
2 138 123
2 98 124
2 152 125
2 118 126
2 148 127
2 116 128
2 146 129
2 110 130
2 154 131
2 100 132
2 132 133
2 110 134
2 168 135
2 126 136
2 156 137
2 122 138
2 166 139
2 136 140
2 140 141
2 132 142
2 224 143
2 138 144
2 188 145
2 128 146
2 160 147
2 126 148
2 174 149
2 130 150
2 150 151
2 124 152
2 222 153
2 150 154
2 164 155
2 140 156
2 170 157
2 152 158
2 158 159
2 146 160
2 216 161
2 120 162
2 162 163
2 154 164
2 198 165
2 144 166
2 240 167
2 134 168
2 182 169
2 156 170
2 184 171
2 168 172
2 172 173
2 148 174
2 200 175
2 160 176
2 176 177
2 176 178
2 178 179
2 174 180
2 180 181
2 172 182
2 210 183
2 170 184
2 220 185
2 182 186
2 206 187
2 144 188
2 232 189
2 108 190
2 258 191
2 142 192
2 244 193
2 180 194
2 194 195
2 164 196
2 196 197
2 196 198
2 212 199
2 194 200
2 236 201
2 198 202
2 202 203
2 166 204
2 204 205
2 186 206
2 250 207
2 184 208
2 208 209
2 186 210
2 210 211
2 202 212
2 242 213
2 212 214
2 282 215
2 178 216
2 298 217
2 216 218
2 262 219
2 208 220
2 348 221
2 158 222
2 260 223
2 192 224
2 292 225
2 200 226
2 290 227
2 206 228
2 228 229
2 82 230
2 374 231
2 188 232
2 284 233
2 220 234
2 276 235
2 226 236
2 268 237
2 228 238
2 272 239
2 204 240
2 280 241
2 214 242
2 246 243
2 192 244
2 244 245
2 252 246
2 286 247
2 218 248
2 344 249
2 238 250
2 256 251
2 242 252
2 300 253
2 232 254
2 342 255
2 250 256
2 288 257
2 190 258
2 258 259
2 222 260
2 296 261
2 218 262
2 278 263
2 240 264
2 264 265
2 236 266
2 266 267
2 266 268
2 274 269
2 246 270
2 270 271
2 238 272
2 272 273
2 268 274
2 326 275
2 314 276
2 276 277
2 262 278
2 308 279
2 264 280
2 316 281
2 214 282
2 282 283
2 254 284
2 284 285
2 270 286
2 302 287
2 256 288
2 304 289
2 226 290
2 318 291
2 224 292
2 292 293
2 310 294
2 332 295
2 260 296
2 296 297
2 248 298
2 298 299
2 252 300
2 354 301
2 286 302
2 330 303
2 294 304
2 352 305
2 302 306
2 340 307
2 278 308
2 362 309
2 288 310
2 310 311
2 290 312
2 312 313
2 234 314
2 314 315
2 280 316
2 370 317
2 312 318
2 364 319
2 316 320
2 320 321
2 274 322
2 322 323
2 306 324
2 356 325
2 322 326
2 346 327
2 320 328
2 384 329
2 324 330
2 330 331
2 294 332
2 338 333
2 304 334
2 366 335
2 120 336
2 336 337
2 332 338
2 376 339
2 306 340
2 358 341
2 254 342
2 342 343
2 248 344
2 390 345
2 326 346
2 382 347
2 234 348
2 348 349
2 324 350
2 350 351
2 334 352
2 394 353
2 300 354
2 354 355
2 350 356
2 386 357
2 340 358
2 388 359
2 338 360
2 360 361
2 308 362
2 380 363
2 318 364
2 368 365
2 334 366
2 366 367
2 364 368
2 368 369
2 328 370
2 398 371
2 344 372
2 372 373
2 230 374
2 374 375
2 360 376
2 396 377
2 356 378
2 378 379
2 362 380
2 380 381
2 346 382
2 382 383
2 328 384
2 384 385
2 378 386
2 386 387
2 358 388
2 392 389
2 372 390
2 390 391
2 388 392
2 392 393
2 352 394
2 394 395
2 376 396
2 396 397
2 370 398
2 398 399
CELL_DATA 399
SCALARS radius float
LOOKUP_TABLE default
0.545494
0.60956
0.150495
0.165953
0.0407392
0.0426212
0.0174904
0.605432
0.390615
0.019653
0.00569179
0.0411801
0.0115519
0.0130433
0.00712308
0.00571624
0.00133279
0.0122482
0.00563591
0.0194905
0.0127107
0.00133631
0.000176304
0.00666367
0.00488932
0.000176879
3.06151e-05
0.00725306
0.00245719
0.000265897
0.000186557
0.165011
0.102741
3.77486e-05
2.8984e-05
0.000236723
0.000124035
3.07092e-05
8.78029e-07
0.00272113
0.000843829
0.00253771
0.000807021
0.000189756
6.77367e-05
2.91736e-05
1.19122e-06
6.4279e-06
6.37527e-06
7.83502e-06
7.7426e-06
2.56221e-06
2.47245e-06
1.86336e-06
1.79534e-06
0.0015613
0.00146722
8.8065e-07
1.66455e-07
0.00018598
0.000163106
1.19502e-06
2.05089e-07
6.97794e-05
2.71264e-05
2.53116e-07
1.90438e-07
1.82499e-07
2.11257e-08
0.000865073
0.000349675
2.06642e-07
5.7743e-08
3.07142e-05
1.80431e-05
1.8097e-07
1.0955e-07
5.33151e-08
5.21721e-08
1.94805e-07
7.76089e-08
0.00114643
0.000968882
0.000127926
4.33587e-05
2.12083e-08
3.52007e-09
0.000359683
7.31497e-05
5.82378e-08
1.00716e-08
1.70898e-08
1.3519e-08
4.80565e-09
4.00215e-09
7.86261e-08
2.57172e-08
1.8829e-05
8.90864e-06
0.000155734
0.000141502
1.0149e-08
2.83604e-09
3.53721e-09
2.48823e-10
4.05601e-09
1.34004e-09
2.81468e-05
1.22257e-05
2.90473e-10
2.01727e-10
1.58021e-08
1.13833e-08
8.61858e-10
8.50716e-10
2.65062e-08
1.14715e-08
2.87342e-09
8.63774e-10
5.7007e-05
3.57895e-05
1.37911e-09
5.90255e-10
9.28899e-06
4.35002e-06
9.70412e-10
6.11605e-10
1.17301e-08
4.61997e-09
2.50569e-10
3.77344e-11
9.80895e-05
8.10992e-05
2.06273e-10
8.18445e-11
8.73917e-10
1.71449e-10
6.00586e-10
1.84721e-10
2.84259e-10
2.59781e-10
7.43123e-05
2.16979e-05
2.2232e-10
1.54596e-10
4.70917e-09
1.76089e-09
6.26923e-10
2.56761e-10
6.88584e-11
6.47505e-11
4.55457e-06
1.54984e-06
3.80331e-11
1.07547e-11
1.75845e-10
7.08017e-11
2.29997e-06
1.99443e-06
1.79901e-09
1.89753e-10
4.82622e-05
3.13803e-05
1.08754e-11
1.93783e-12
1.87126e-10
3.9411e-11
8.27995e-11
1.24218e-11
7.3541e-11
3.40431e-11
2.68772e-11
2.59259e-11
2.60237e-10
2.40223e-11
7.12899e-10
6.92536e-10
3.11301e-10
2.8484e-10
8.86514e-11
8.5867e-11
1.25773e-11
3.6484e-12
3.49821e-11
9.7257e-12
4.17771e-12
1.90164e-12
1.6431e-10
8.61607e-11
1.32729e-05
6.74522e-06
2.66662e-05
1.55072e-05
3.99183e-11
3.66727e-11
3.48646e-12
3.26914e-12
1.95232e-12
3.08382e-13
2.42656e-11
6.27263e-12
5.47883e-13
5.12275e-13
6.29457e-11
5.70802e-11
1.9371e-12
2.70155e-13
1.4971e-11
1.33049e-11
4.034e-12
2.57544e-12
3.10819e-13
5.77076e-14
8.88183e-14
7.09688e-14
1.91817e-10
4.57781e-11
6.08519e-11
4.06777e-11
1.00009e-11
3.41982e-12
1.61768e-06
7.29738e-07
2.29159e-05
1.05531e-05
7.52184e-12
5.32911e-12
7.31853e-13
7.0364e-13
0.000842135
0.000338084
9.04963e-11
3.54488e-11
4.31447e-12
1.84808e-12
6.36488e-12
1.38239e-12
3.51984e-13
2.46578e-13
3.988e-11
7.30279e-12
5.81868e-14
1.0832e-14
1.90636e-05
1.47346e-05
1.09938e-14
1.99826e-15
5.27661e-11
2.737e-11
2.71767e-13
6.79891e-14
1.69005e-14
1.40833e-14
4.66467e-11
2.98929e-11
7.08078e-14
3.39317e-14
7.99445e-06
5.88717e-06
7.99257e-07
4.10307e-07
4.28027e-11
2.07143e-11
1.3029e-11
1.21169e-11
2.2274e-12
2.01298e-12
1.42508e-12
6.09071e-13
3.86674e-15
3.66799e-15
2.8658e-13
2.04436e-13
6.31945e-13
1.97606e-13
2.13109e-12
1.49873e-12
2.2313e-11
1.21387e-11
7.56362e-12
3.39642e-12
7.95631e-14
5.26824e-14
3.91727e-11
2.49679e-11
2.03799e-15
7.64428e-16
3.44067e-14
6.24003e-15
5.51476e-12
1.67504e-12
1.22062e-05
8.63259e-06
7.23966e-15
4.64985e-15
4.95937e-07
3.75396e-07
4.96197e-11
2.9714e-11
1.51808e-14
7.81444e-15
7.85925e-16
2.61559e-16
6.37883e-15
2.04078e-15
3.38409e-16
2.27778e-16
1.3047e-11
7.01909e-12
1.18489e-14
1.08693e-14
2.53936e-12
2.21765e-12
2.67511e-12
2.11533e-12
3.50986e-12
9.19194e-13
1.76177e-12
8.40727e-13
1.59509e-12
1.41991e-12
2.97852e-13
2.60426e-13
2.90153e-16
9.4704e-17
2.06155e-13
9.03518e-14
1.06138e-12
5.41718e-13
2.79458e-16
1.57818e-16
4.93104e-15
2.57575e-15
2.54976e-15
1.56598e-15
4.17643e-05
3.00019e-05
2.68534e-15
9.27825e-16
2.42877e-16
1.27661e-16
3.45908e-11
2.44837e-11
2.91405e-11
1.07624e-11
1.01492e-13
6.1085e-14
3.94012e-12
2.76648e-12
1.37555e-16
1.17738e-16
2.15535e-15
1.00166e-15
8.90096e-15
6.10915e-15
9.90113e-17
3.69794e-17
1.35891e-16
6.73676e-17
1.3153e-15
1.09347e-15
7.56156e-12
3.8818e-12
9.15954e-13
4.82192e-13
1.87235e-15
1.39653e-15
5.58506e-13
3.96003e-13
9.58189e-13
4.21688e-13
1.61875e-11
1.35121e-11
0.000415316
0.000320733
9.89222e-16
4.84445e-16
4.94944e-17
3.81346e-17
4.42311e-12
3.03807e-12
6.75229e-14
4.30757e-14
6.8109e-13
5.3944e-13
4.03693e-17
2.47825e-17
7.54127e-17
4.4314e-17
1.21071e-11
8.08282e-12
4.97504e-17
3.30547e-17
1.1481e-15
7.98107e-16
5.53192e-16
3.81664e-16
4.689e-13
3.04057e-13
