# vtk DataFile Version 3.0
Tree
ASCII
DATASET POLYDATA
POINTS 40 float
0 0.0287941 0
-0.0126607 -0.0251748 0
0.00423547 0.00213237 0
0.0259787 -0.0201673 0
-0.00208886 0.02004 0
-0.0230888 0.017684 0
-0.000626657 0.0261679 0
0.0234609 0.0278788 0
-0.0113544 0.0154728 0
-0.0277715 -0.00803917 0
0.00440476 0.0102646 0
0.0248694 0.00521801 0
0.000584411 -0.0118647 0
0.00567841 -0.024451 0
-0.0213202 -0.0047847 0
-0.018803 -0.0165692 0
0.0163989 0.0241142 0
0.025768 0.016389 0
-0.0213376 -0.0122665 0
-0.0277377 -0.0287649 0
-0.000187997 0.0280062 0
-0.0109378 0.0282299 0
0.00143954 -0.00384173 0
-0.00660784 -0.00554711 0
-0.0170218 0.00741038 0
-0.0269212 0.00852779 0
0.0159869 -0.0152911 0
0.0151431 -0.0282376 0
0.014371 -0.00999766 0
0.0271084 -0.0110833 0
-0.013508 0.0124091 0
-0.00722621 0.00214039 0
0.0203776 0.00404537 0
0.0263683 -0.00329567 0
0.0117956 0.00856903 0
0.0172645 0.0137013 0
-0.0204826 0.0190241 0
-0.0271918 0.024997 0
0.0242807 0.0167011 0
0.028487 0.010882 0
LINES 39 117
2 12 1
2 10 2
2 26 3
2 6 4
2 36 5
2 20 6
2 16 7
2 4 8
2 14 9
2 4 10
2 32 11
2 22 12
2 12 13
2 24 14
2 18 15
2 6 16
2 38 17
2 14 18
2 18 19
2 0 20
2 20 21
2 2 22
2 22 23
2 30 24
2 24 25
2 28 26
2 26 27
2 2 28
2 28 29
2 8 30
2 30 31
2 34 32
2 32 33
2 10 34
2 34 35
2 8 36
2 36 37
2 16 38
2 38 39
CELL_DATA 39
SCALARS radius float
LOOKUP_TABLE default
0.486149
0.815196
0.458098
1.07015
0.317161
1.12151
0.364402
0.792004
0.39177
0.899902
0.375699
0.589631
0.448301
0.659312
0.398346
0.569871
0.319145
0.609539
0.546543
1.13053
0.324947
0.632585
0.363789
0.697058
0.37348
0.588741
0.476122
0.66084
0.438869
0.731231
0.373957
0.523642
0.449058
0.571876
0.351543
0.472981
0.419659
0.515111
0.470527
