# vtk DataFile Version 3.0
Tree
ASCII
DATASET POLYDATA
POINTS 22 float
0 0.0287941 0
-0.0126607 -0.0251748 0
0.00423547 0.00213237 0
0.0259787 -0.0201673 0
-0.00208886 0.02004 0
-0.0230888 0.017684 0
-0.000626657 0.0261679 0
0.0234609 0.0278788 0
-0.0113544 0.0154728 0
-0.0277715 -0.00803917 0
0.00440476 0.0102646 0
0.0248694 0.00521801 0
0.000584411 -0.0118647 0
0.00567841 -0.024451 0
-0.0213202 -0.0047847 0
-0.018803 -0.0165692 0
0.0163989 0.0241142 0
0.025768 0.016389 0
-0.0213376 -0.0122665 0
-0.0277377 -0.0287649 0
-0.000187997 0.0280062 0
-0.0109378 0.0282299 0
LINES 21 63
2 12 1
2 10 2
2 2 3
2 6 4
2 8 5
2 20 6
2 16 7
2 4 8
2 14 9
2 4 10
2 10 11
2 2 12
2 12 13
2 8 14
2 18 15
2 6 16
2 16 17
2 14 18
2 18 19
2 0 20
2 20 21
CELL_DATA 21
SCALARS radius float
LOOKUP_TABLE default
0.563095
0.789928
0.558657
1.03954
0.422658
1.09726
0.437118
0.802453
0.452369
0.84654
0.484528
0.682955
0.519256
0.761294
0.459962
0.58256
0.485145
0.703822
0.631082
1.11195
0.377397
