# vtk DataFile Version 3.0
Tree
ASCII
DATASET POLYDATA
POINTS 8 float
0 0.0287941 0
-0.0126607 -0.0251748 0
0.00423547 0.00213237 0
0.0259787 -0.0201673 0
-0.00208886 0.02004 0
-0.0230888 0.017684 0
-0.000626657 0.0261679 0
0.0234609 0.0278788 0
LINES 7 21
2 2 1
2 4 2
2 2 3
2 6 4
2 4 5
2 0 6
2 6 7
CELL_DATA 7
SCALARS radius float
LOOKUP_TABLE default
0.729985
0.916238
0.724431
0.993745
0.596439
1.06187
0.599973
