# vtk DataFile Version 3.0
Tree
ASCII
DATASET POLYDATA
POINTS 22 float
0 0 0
0.127403 -0.526228 0
0.0637015 -0.263114 0
-0.377202 -0.555467 0
-0.15675 -0.409291 0
-0.122106 -1.08108 0
-0.139428 -0.745184 0
0.52413 -0.985784 0
0.0955523 -0.394671 0
0.605508 -0.46519 0
0.192351 -0.865484 0
0.156298 -1.52951 0
-0.130767 -0.913131 0
-0.526962 -1.47683 0
-0.328864 -1.19498 0
-0.803908 -0.950728 0
0.174324 -1.1975 0
0.719155 -1.51984 0
-0.427913 -1.3359 0
-0.215284 -1.92617 0
0.358241 -0.925634 0
0.985608 -0.844042 0
LINES 21 63
2 0 2
2 2 8
2 2 4
2 4 3
2 4 6
2 6 12
2 6 10
2 8 1
2 8 9
2 10 20
2 10 16
2 12 5
2 12 14
2 14 18
2 14 15
2 16 11
2 16 17
2 18 13
2 18 19
2 20 7
2 20 21
CELL_DATA 21
SCALARS radius float
LOOKUP_TABLE default
1.14598
0.629331
1.08635
0.547433
1.06403
0.799554
0.820028
0.407501
0.569074
0.557589
0.660898
0.395515
0.748223
0.578942
0.510676
0.440441
0.517366
0.363949
0.502788
0.35753
0.491975
