# vtk DataFile Version 3.0
Tree
ASCII
DATASET POLYDATA
POINTS 16 float
0 0 0
0.113953 -0.470673 0
0.0569764 -0.235336 0
-0.33738 -0.496825 0
0.0854646 -0.353005 0
-0.109215 -0.966945 0
0.0712205 -0.294171 0
0.468796 -0.881712 0
0.0640984 -0.264753 0
-0.572226 -0.818171 0
0.270008 -0.587941 0
0.139797 -1.36803 0
-0.254064 -0.541462 0
-0.471329 -1.32092 0
0.0676595 -0.279462 0
0.595975 -0.334794 0
LINES 15 45
2 4 1
2 0 2
2 2 3
2 6 4
2 4 5
2 14 6
2 10 7
2 2 8
2 12 9
2 6 10
2 10 11
2 8 12
2 12 13
2 8 14
2 14 15
CELL_DATA 15
SCALARS radius float
LOOKUP_TABLE default
0.00786069
0.0366038
0.0351208
0.00854704
0.00517589
0.00946316
0.00524262
0.0178869
0.012555
0.0060647
0.0042903
0.0147251
0.0106671
0.0136261
0.0118938
