# vtk DataFile Version 3.0
Tree
ASCII
DATASET POLYDATA
POINTS 14 float
0 0 0
0.152276 -0.628963 0
0.0761379 -0.314482 0
-0.450843 -0.663911 0
-0.187353 -0.489196 0
-0.145944 -1.29214 0
-0.166648 -0.890666 0
0.626456 -1.17824 0
0.114207 -0.471722 0
0.723721 -0.556009 0
0.229904 -1.03445 0
0.186812 -1.82811 0
-0.156296 -1.0914 0
-0.62984 -1.76515 0
LINES 13 39
2 8 1
2 0 2
2 4 3
2 2 4
2 12 5
2 4 6
2 10 7
2 2 8
2 8 9
2 6 10
2 10 11
2 6 12
2 12 13
CELL_DATA 13
SCALARS radius float
LOOKUP_TABLE default
0.785479
0.958953
0.577814
0.60302
0.232392
0.297627
0.179984
0.871786
0.562463
0.211462
0.15362
0.256667
0.163344
