# vtk DataFile Version 3.0
Tree
ASCII
DATASET POLYDATA
POINTS 200 float
0 0 0
0.201442 -0.83204 0
0.100721 -0.41602 0
-0.596409 -0.878271 0
0.151081 -0.62403 0
-0.193066 -1.70933 0
0.176262 -0.728035 0
0.828723 -1.55866 0
-0.247844 -0.647146 0
-1.01156 -1.44634 0
-0.0209922 -1.16668 0
0.247129 -2.41837 0
-0.107029 -1.43801 0
-0.8332 -2.33507 0
0.125901 -0.520025 0
1.15525 -0.673388 0
0.113068 -1.79252 0
1.2748 -2.25683 0
0.180098 -2.10544 0
-0.340394 -3.04554 0
-0.470115 -1.88654 0
-1.54563 -2.07044 0
0.213613 -2.26191 0
0.838385 -3.19994 0
-1.00787 -1.97849 0
-1.2912 -3.04582 0
0.502492 -1.14335 0
1.71763 -1.63427 0
-0.0801478 -2.57549 0
0.00762894 -3.84499 0
-0.629703 -1.04674 0
-1.62993 -1.02407 0
-0.0362594 -3.21024 0
-0.808737 -3.63037 0
0.525999 -2.73092 0
1.75754 -3.23709 0
-1.27675 -2.02446 0
-2.12483 -2.53573 0
0.682192 -2.96543 0
1.03121 -4.19218 0
-0.422498 -3.4203 0
-0.83377 -4.4104 0
1.11006 -1.38881 0
2.12279 -2.34382 0
-1.14954 -2.51216 0
-1.78865 -3.70833 0
-0.0143152 -3.52762 0
0.381083 -4.59022 0
0.856699 -3.57881 0
1.79236 -4.17769 0
-1.41119 -2.04745 0
-2.34685 -1.58462 0
1.41385 -1.51154 0
1.95165 -0.972071 0
0.183384 -4.05892 0
-0.029017 -5.26256 0
0.282234 -4.32457 0
1.04048 -5.07907 0
1.32453 -3.87825 0
2.50024 -3.64872 0
-0.628134 -3.91535 0
-1.8225 -4.66392 0
-1.70079 -2.2801 0
-2.7252 -3.29675 0
0.0771835 -4.66074 0
-0.86382 -5.60851 0
1.56574 -1.5729 0
2.5729 -1.55607 0
1.55844 -4.02797 0
2.25716 -4.86799 0
-1.46909 -3.11024 0
-2.65275 -4.29848 0
-1.22532 -4.28963 0
-1.69624 -5.47161 0
1.64168 -1.60358 0
3.06279 -2.82236 0
0.0240833 -4.96165 0
0.0367693 -6.19147 0
0.661356 -4.70182 0
1.077 -6.06436 0
0.0503605 -0.20801 0
-1.1723 -0.246847 0
-1.91281 -2.40792 0
-3.02544 -2.32585 0
0.869179 -5.38309 0
1.94464 -5.74761 0
1.91238 -3.76348 0
3.24282 -3.78726 0
0.0304263 -5.57656 0
-0.869861 -6.5736 0
-1.46078 -4.88062 0
-2.85853 -5.10942 0
-2.15965 -4.99502 0
-2.05975 -6.14607 0
-2.06092 -3.70436 0
-3.41313 -4.04706 0
0.0335978 -5.88402 0
0.643469 -6.88562 0
1.9078 -4.44798 0
3.23784 -4.91728 0
2.57282 -4.68263 0
2.96081 -5.52886 0
0.973091 -5.72373 0
1.78819 -6.62373 0
-2.46912 -2.36689 0
-3.46487 -2.96116 0
0.0351835 -6.03774 0
-0.182985 -7.07565 0
-1.57851 -5.17612 0
-1.55781 -7.01451 0
1.40691 -5.56535 0
2.44438 -6.30119 0
-2.50909 -5.05222 0
-3.05553 -5.90099 0
-0.0739008 -6.5567 0
-0.838594 -7.47293 0
2.35223 -2.21297 0
3.35492 -2.00433 0
-2.78231 -5.4766 0
-3.63231 -5.12281 0
2.5776 -3.77537 0
3.87587 -4.18496 0
-1.56816 -6.09531 0
-2.37128 -6.95948 0
1.38064 -6.17373 0
1.61918 -7.449 0
0.338534 -6.38482 0
0.758171 -7.63701 0
-0.128443 -6.81618 0
0.12898 -7.77875 0
2.70751 -2.51767 0
3.8531 -2.9732 0
1.58442 -6.39873 0
2.66335 -7.03921 0
1.92564 -5.93327 0
3.23044 -6.20672 0
2.90533 -4.79995 0
3.72627 -5.4846 0
-1.96972 -6.5274 0
-1.7412 -7.89442 0
-2.91892 -5.68879 0
-3.3206 -6.7825 0
-2.98723 -5.79489 0
-3.75948 -6.07345 0
-3.20731 -5.2997 0
-4.18771 -4.63421 0
-0.456248 -7.01481 0
-0.820539 -8.32581 0
0.000268442 -7.29746 0
0.904486 -8.54589 0
2.12389 -6.71897 0
2.54043 -7.8924 0
0.0646241 -7.5381 0
-0.182244 -8.75582 0
-2.74728 -2.34637 0
-3.30883 -1.54673 0
-1.87902 -1.81603 0
-2.46082 -0.7864 0
-2.88636 -2.33611 0
-4.35106 -3.66439 0
2.33216 -7.30568 0
3.46291 -7.37081 0
3.3158 -5.14228 0
4.47779 -5.00837 0
-2.1705 -6.74344 0
-2.81415 -8.04693 0
3.52104 -5.31344 0
4.18519 -6.28665 0
-3.41981 -5.21126 0
-4.46655 -5.42548 0
2.4363 -7.59904 0
1.75617 -8.57518 0
3.22674 -3.98017 0
4.43009 -3.66974 0
-1.85546 -7.21091 0
-2.14366 -8.84524 0
-2.49232 -7.39518 0
-3.71443 -7.60209 0
0.452377 -7.92168 0
0.706293 -9.36422 0
-3.11976 -6.23564 0
-4.0622 -6.86354 0
-0.0588098 -8.14696 0
-1.12614 -9.07181 0
2.09623 -8.08711 0
2.90709 -8.6277 0
2.48836 -7.74572 0
3.34363 -8.1376 0
-0.592477 -8.60939 0
-0.166151 -9.72992 0
0.579335 -8.64295 0
1.45529 -9.56477 0
-2.9559 -2.33098 0
-3.79022 -2.03597 0
3.8968 -5.07532 0
4.82987 -5.56907 0
2.06932 -1.56449 0
2.72409 -0.827003 0
2.89753 -7.33825 0
4.31324 -7.14003 0
LINES 199 597
2 6 1
2 80 2
2 8 3
2 14 4
2 12 5
2 4 6
2 26 7
2 2 8
2 30 9
2 4 10
2 22 11
2 10 12
2 20 13
2 2 14
2 14 15
2 10 16
2 16 17
2 16 18
2 28 19
2 12 20
2 50 21
2 18 22
2 38 23
2 20 24
2 44 25
2 6 26
2 74 27
2 18 28
2 46 29
2 8 30
2 30 31
2 28 32
2 40 33
2 22 34
2 34 35
2 24 36
2 82 37
2 34 38
2 48 39
2 32 40
2 60 41
2 26 42
2 42 43
2 24 44
2 70 45
2 32 46
2 56 47
2 38 48
2 68 49
2 36 50
2 156 51
2 42 52
2 52 53
2 46 54
2 76 55
2 54 56
2 78 57
2 48 58
2 86 59
2 40 60
2 72 61
2 36 62
2 62 63
2 54 64
2 64 65
2 52 66
2 196 67
2 58 68
2 98 69
2 44 70
2 94 71
2 60 72
2 108 73
2 66 74
2 130 75
2 64 76
2 106 77
2 56 78
2 102 79
2 0 80
2 80 81
2 62 82
2 192 83
2 78 84
2 110 85
2 58 86
2 120 87
2 76 88
2 88 89
2 72 90
2 112 91
2 90 92
2 92 93
2 70 94
2 94 95
2 88 96
2 126 97
2 68 98
2 136 99
2 98 100
2 100 101
2 84 102
2 132 103
2 82 104
2 104 105
2 96 106
2 128 107
2 90 108
2 122 109
2 84 110
2 134 111
2 92 112
2 142 113
2 106 114
2 146 115
2 74 116
2 116 117
2 112 118
2 168 119
2 86 120
2 172 121
2 108 122
2 164 123
2 102 124
2 124 125
2 96 126
2 126 127
2 114 128
2 152 129
2 116 130
2 130 131
2 124 132
2 150 133
2 110 134
2 134 135
2 100 136
2 166 137
2 122 138
2 174 139
2 118 140
2 180 141
2 140 142
2 142 143
2 118 144
2 144 145
2 114 146
2 146 147
2 128 148
2 178 149
2 132 150
2 186 151
2 148 152
2 182 153
2 104 154
2 154 155
2 50 156
2 156 157
2 154 158
2 158 159
2 150 160
2 198 161
2 136 162
2 194 163
2 138 164
2 176 165
2 162 166
2 166 167
2 144 168
2 168 169
2 160 170
2 184 171
2 120 172
2 172 173
2 138 174
2 174 175
2 164 176
2 176 177
2 148 178
2 190 179
2 140 180
2 180 181
2 152 182
2 188 183
2 170 184
2 184 185
2 170 186
2 186 187
2 182 188
2 188 189
2 178 190
2 190 191
2 158 192
2 192 193
2 162 194
2 194 195
2 66 196
2 196 197
2 160 198
2 198 199
CELL_DATA 199
SCALARS radius float
LOOKUP_TABLE default
0.615942
6.26177
0.916366
6.21528
0.801881
2.62619
0.952431
1.61052
1.09997
6.05489
0.704667
3.23582
0.987099
6.22605
1.07725
5.72969
1.16083
5.71376
0.959895
3.21932
0.746255
3.37974
0.845761
3.18808
1.06266
2.61484
0.66765
5.28876
0.865621
1.50484
1.27587
5.2782
0.945166
3.36949
1.22913
2.81408
0.902179
3.31407
1.07339
3.7984
1.01574
2.57203
1.27788
2.16291
1.20372
4.51836
0.869236
3.2956
0.920365
1.68612
1.15427
2.46226
1.13463
4.50774
0.913057
3.52406
1.0459
3.2572
1.16046
3.77879
1.12291
2.59581
1.36637
3.62997
1.29991
2.37918
1.16035
2.84079
1.13815
2.07378
1.42781
3.75417
0.971018
2.10437
1.26751
3.57353
0.817197
3.50634
1.00405
6.27351
1.11432
2.46293
0.769068
3.47504
1.18743
2.26575
1.29241
3.55355
1.36615
3.72038
1.06535
3.02214
1.38528
1.92868
1.62152
3.48493
1.25097
2.80821
1.13349
2.74446
1.38777
3.22184
1.02893
2.4219
1.4109
3.3252
0.988699
2.88017
1.35418
2.04249
1.35662
2.92183
0.951016
3.30867
1.31235
2.08172
1.40517
2.87384
1.15906
2.15936
1.45449
2.8429
1.12269
3.189
1.44499
1.77125
1.53252
3.09915
1.0424
1.8417
1.61476
3.08688
1.29953
1.89884
1.63238
2.62068
1.21093
2.73655
1.46766
2.34402
1.47633
1.63417
1.51886
2.21422
1.63546
1.86188
1.61269
3.06524
1.46287
3.04829
1.08077
2.46474
1.41517
2.25044
1.40727
1.63591
1.41617
2.04961
1.72094
2.96744
1.48157
2.548
1.54133
2.24044
1.58004
1.92904
1.7547
1.86447
1.7013
2.53888
1.61105
1.99247
1.69072
2.09896
1.82575
2.14223
1.80558
2.40016
1.6207
2.04203
1.74321
2.40095
1.64173
2.17128
1.82266
1.83004
1.69461
2.22441
1.87401
2.20332
1.86042
1.52024
1.45158
2.10776
1.78656
1.6068
1.37262
2.13742
1.86748
