# vtk DataFile Version 3.0
Tree
ASCII
DATASET POLYDATA
POINTS 30 float
0 0 0
0.104024 -0.429664 0
0.0520121 -0.214832 0
-0.307984 -0.453537 0
-0.127986 -0.334185 0
-0.0996988 -0.882696 0
-0.113842 -0.60844 0
0.427951 -0.804889 0
0.0780181 -0.322248 0
0.494395 -0.379826 0
0.157054 -0.706665 0
0.127617 -1.24884 0
-0.106771 -0.745568 0
-0.430263 -1.20583 0
-0.268517 -0.975697 0
-0.656388 -0.776266 0
0.142335 -0.977752 0
0.587188 -1.24094 0
-0.34939 -1.09076 0
-0.175779 -1.57271 0
0.292502 -0.755777 0
0.804745 -0.689157 0
0.364762 -1.10935 0
0.297236 -1.61116 0
-0.262584 -1.33174 0
-0.628426 -1.59752 0
-0.219181 -1.45222 0
0.0265809 -1.91124 0
-0.462452 -0.875982 0
-0.970756 -1.07448 0
LINES 29 87
2 8 1
2 0 2
2 4 3
2 2 4
2 12 5
2 4 6
2 20 7
2 2 8
2 8 9
2 6 10
2 16 11
2 6 12
2 18 13
2 12 14
2 28 15
2 10 16
2 22 17
2 14 18
2 26 19
2 10 20
2 20 21
2 16 22
2 22 23
2 18 24
2 24 25
2 24 26
2 26 27
2 14 28
2 28 29
CELL_DATA 29
SCALARS radius float
LOOKUP_TABLE default
0.734455
0.858144
0.439685
0.448628
0.145316
0.17427
0.0994211
0.815156
0.525926
0.126126
0.0789979
0.148673
0.0452056
0.0601528
0.0422708
0.0864671
0.0457396
0.0470509
0.0156884
0.110791
0.0722517
0.0535404
0.038661
0.0227542
0.0187304
0.0173358
0.0110483
0.0484161
0.0336088
