# vtk DataFile Version 3.0
Tree
ASCII
DATASET POLYDATA
POINTS 4 float
0 0 0
0.316172 -1.72243 0
0.158086 -0.861214 0
0.420999 -0.637287 0
LINES 3 9
2 0 2
2 2 1
2 2 3
CELL_DATA 3
SCALARS radius float
LOOKUP_TABLE default
1.15466
0.817183
0.647601
