# vtk DataFile Version 3.0
Tree
ASCII
DATASET POLYDATA
POINTS 80 float
0 0 0
0.0637015 -0.263114 0
0.0318508 -0.131557 0
-0.188601 -0.277734 0
-0.0783752 -0.204645 0
-0.0610528 -0.540539 0
-0.069714 -0.372592 0
0.262065 -0.492892 0
0.0961756 -0.432742 0
0.302754 -0.232595 0
0.0132308 -0.402667 0
0.0781489 -0.764754 0
0.0456898 -0.583711 0
-0.263481 -0.738415 0
-0.108896 -0.661063 0
-0.4121 -0.511056 0
0.0294603 -0.493189 0
0.403127 -0.713673 0
-0.0316029 -0.622387 0
-0.107642 -0.963085 0
-0.0696224 -0.792736 0
0.253834 -0.96883 0
0.216294 -0.603431 0
0.508645 -0.491573 0
-0.260498 -0.58606 0
-0.456421 -0.278244 0
-0.0886322 -0.87791 0
-0.399358 -1.01521 0
-0.243995 -0.946559 0
0.0559544 -1.20417 0
-0.166314 -0.912235 0
-0.571551 -0.765233 0
-0.0940204 -1.07537 0
0.540125 -0.994816 0
-0.169008 -1.01096 0
-0.248182 -1.24206 0
0.223052 -1.03509 0
0.295617 -1.30462 0
0.381589 -1.01495 0
0.668422 -0.72994 0
-0.368932 -0.838734 0
-0.680314 -0.512335 0
-0.206501 -0.978761 0
-0.51479 -1.27387 0
0.064516 -1.05523 0
0.101977 -1.47822 0
-0.360646 -1.12631 0
-0.715825 -1.01512 0
0.525005 -0.872447 0
0.607978 -1.24918 0
0.0832467 -1.26672 0
-0.271072 -1.55459 0
0.566492 -1.06081 0
0.778649 -0.953878 0
0.302321 -1.02502 0
0.323305 -1.57821 0
-0.538235 -1.07072 0
-0.834917 -0.764181 0
0.312813 -1.30162 0
-0.0290992 -1.70307 0
0.596714 -0.801194 0
0.776898 -0.469863 0
-0.0939125 -1.41066 0
-0.635744 -1.52222 0
0.587235 -1.155 0
0.662386 -1.51746 0
-0.686576 -0.91745 0
-0.791157 -1.24742 0
-0.364828 -1.46644 0
-0.267774 -1.76414 0
0.62481 -1.33623 0
0.878293 -1.24507 0
0.606023 -1.24561 0
0.391681 -1.83223 0
-0.316301 -1.61529 0
-0.566419 -1.75135 0
0.686806 -0.635528 0
0.543538 -0.21578 0
-0.44136 -1.68332 0
-0.101875 -1.98668 0
LINES 79 237
2 2 1
2 0 2
2 4 3
2 2 4
2 6 5
2 4 6
2 8 7
2 10 8
2 8 9
2 6 10
2 12 11
2 16 12
2 14 13
2 18 14
2 24 15
2 10 16
2 22 17
2 12 18
2 26 19
2 18 20
2 20 21
2 16 22
2 22 23
2 14 24
2 24 25
2 20 26
2 28 27
2 30 28
2 32 29
2 26 30
2 40 31
2 34 32
2 38 33
2 42 34
2 34 35
2 44 36
2 36 37
2 54 38
2 60 39
2 30 40
2 40 41
2 28 42
2 46 43
2 32 44
2 50 45
2 42 46
2 56 47
2 38 48
2 64 49
2 44 50
2 62 51
2 48 52
2 52 53
2 36 54
2 58 55
2 46 56
2 66 57
2 54 58
2 58 59
2 48 60
2 76 61
2 50 62
2 68 63
2 52 64
2 70 65
2 56 66
2 66 67
2 62 68
2 74 69
2 72 70
2 70 71
2 64 72
2 72 73
2 68 74
2 78 75
2 60 76
2 76 77
2 74 78
2 78 79
CELL_DATA 79
SCALARS radius float
LOOKUP_TABLE default
0.987577
1
0.329169
0.332643
0.103429
0.104493
0.0266728
0.031791
0.0236058
0.0325501
0.00717429
0.00726565
0.00213901
0.00233735
0.00124068
0.0133084
0.01039
0.00242652
0.000570586
0.00114925
0.00109933
0.0125434
0.00947989
0.00143946
0.00102373
0.000574205
8.88608e-05
8.99503e-05
8.5184e-06
0.00015265
0.00012157
8.63805e-06
6.74797e-07
1.96674e-05
1.90955e-05
2.13883e-06
2.07679e-06
6.9404e-07
2.53778e-07
0.000141436
0.000101074
2.9673e-05
2.44925e-05
2.97815e-06
2.43106e-06
2.64571e-05
1.44328e-05
3.00159e-07
1.25091e-07
2.5525e-06
1.24725e-06
1.96832e-07
1.76189e-07
9.38625e-07
6.72924e-07
1.56412e-05
7.85006e-06
7.89783e-07
5.72778e-07
2.68778e-07
1.26263e-07
1.31279e-06
6.1922e-07
1.29195e-07
3.7747e-08
9.36063e-06
6.9551e-06
6.85584e-07
3.99925e-07
4.55283e-08
3.43665e-08
5.83893e-08
4.71312e-08
4.39358e-07
2.4497e-07
1.45383e-07
1.01958e-07
2.75226e-07
1.83187e-07
