# vtk DataFile Version 3.0
Tree
ASCII
DATASET POLYDATA
POINTS 12 float
0 0 0
0.628753 -1.34759 0
0.314376 -0.673793 0
-0.84345 -0.874518 0
-0.264537 -0.774156 0
-0.217904 -1.71109 0
-0.553993 -0.824337 0
-0.540581 -0.258172 0
-0.241221 -1.24262 0
0.365543 -1.90378 0
-0.229562 -1.47686 0
-0.770676 -1.43895 0
LINES 11 33
2 0 2
2 2 1
2 2 4
2 4 6
2 4 8
2 6 3
2 6 7
2 8 10
2 8 9
2 10 5
2 10 11
CELL_DATA 11
SCALARS radius float
LOOKUP_TABLE default
1.26497
0.784452
1.13133
0.787735
0.918797
0.522984
0.616242
0.683843
0.653885
0.446693
0.550871
