# vtk DataFile Version 3.0
Tree
ASCII
DATASET POLYDATA
POINTS 20 float
0 0 0
0.352073 -0.589415 0
0.176037 -0.294708 0
-0.630901 -0.896472 0
-0.227432 -0.59559 0
0.11065 -1.30227 0
0.264055 -0.442061 0
0.668606 -0.97085 0
-0.0583911 -0.94893 0
-0.473757 -1.32939 0
-0.0256979 -0.445149 0
-0.472476 -0.165612 0
0.46633 -0.706456 0
0.613037 -0.359247 0
0.567468 -0.838653 0
0.444 -1.21767 0
-0.429167 -0.746031 0
-0.657893 -0.492074 0
0.516899 -0.772554 0
0.228056 -0.861159 0
LINES 19 57
2 6 1
2 0 2
2 16 3
2 10 4
2 8 5
2 2 6
2 14 7
2 4 8
2 8 9
2 2 10
2 10 11
2 6 12
2 12 13
2 18 14
2 14 15
2 4 16
2 16 17
2 12 18
2 18 19
CELL_DATA 19
SCALARS radius float
LOOKUP_TABLE default
0.820017
0.975424
0.257119
0.3739
0.231175
0.849262
0.157474
0.279191
0.211104
0.680799
0.640915
0.39392
0.354397
0.181038
0.126587
0.312472
0.238177
0.255171
0.220229
