# vtk DataFile Version 3.0
Tree
ASCII
DATASET POLYDATA
POINTS 20 float
0 0 0
0.127403 -0.526228 0
0.0637015 -0.263114 0
-0.377202 -0.555467 0
-0.15675 -0.409291 0
-0.122106 -1.08108 0
-0.139428 -0.745184 0
0.52413 -0.985784 0
0.0955523 -0.394671 0
0.605508 -0.46519 0
0.192351 -0.865484 0
0.156298 -1.52951 0
-0.130767 -0.913131 0
-0.526962 -1.47683 0
-0.328864 -1.19498 0
-0.803908 -0.950728 0
0.174324 -1.1975 0
0.719155 -1.51984 0
-0.427913 -1.3359 0
-0.215284 -1.92617 0
LINES 19 57
2 8 1
2 0 2
2 4 3
2 2 4
2 12 5
2 4 6
2 10 7
2 2 8
2 8 9
2 6 10
2 16 11
2 6 12
2 18 13
2 12 14
2 14 15
2 10 16
2 16 17
2 14 18
2 18 19
CELL_DATA 19
SCALARS radius float
LOOKUP_TABLE default
0.51456
0.861759
0.348563
0.808258
0.399068
0.786045
0.468239
0.76247
0.608963
0.705741
0.49614
0.743182
0.41292
0.690217
0.56468
0.628992
0.502286
0.609749
0.489557
