# vtk DataFile Version 3.0
Tree
ASCII
DATASET POLYDATA
POINTS 200 float
0 0 0
-1.96728 -3.49531 0
-0.98364 -1.74765 0
-2.20867 -1.38294 0
-1.47546 -2.62148 0
-0.560547 -2.86899 0
-1.72137 -3.0584 0
-4.23259 -2.96706 0
-1.84432 -3.27685 0
-2.89748 -5.53364 0
-2.3709 -4.40525 0
-0.899261 -8.98018 0
-1.63508 -6.69271 0
1.48579 -8.54567 0
-1.018 -2.74524 0
-0.533865 -4.28274 0
-2.97698 -3.01273 0
-3.65239 -1.89371 0
-2.00299 -5.54898 0
-3.01638 -6.26268 0
-2.50969 -5.90583 0
-3.65797 -6.27871 0
-0.775934 -3.51399 0
0.0929391 -5.00662 0
-0.341498 -4.2603 0
3.81565 -5.06446 0
-0.0746459 -7.61919 0
1.09373 -8.57795 0
-0.558716 -3.88715 0
0.189985 -3.95355 0
-1.59615 -1.5653 0
-1.46172 -1.13357 0
-0.49182 -0.873827 0
-0.214994 -1.77497 0
-1.26717 -7.83645 0
-2.03062 -7.85938 0
-0.73773 -1.31074 0
-0.57889 -1.74331 0
-0.184365 -3.92035 0
0.231882 -3.11354 0
1.73708 -4.66238 0
2.64072 -1.96492 0
-1.24673 -2.68336 0
-1.35775 -2.70261 0
2.77636 -4.86342 0
3.11823 -7.33926 0
2.9473 -6.10134 0
3.50857 -7.52176 0
-2.63419 -4.96944 0
-3.17915 -4.26923 0
-1.45113 -7.26458 0
-1.32619 -7.61421 0
-3.60479 -2.98989 0
-4.01538 -4.0534 0
0.705572 -8.08243 0
1.67889 -7.36146 0
3.22793 -6.81155 0
3.53399 -7.19584 0
3.03276 -6.7203 0
2.22781 -6.22299 0
-0.860685 -1.5292 0
-0.951452 -1.60115 0
1.09568 -8.31405 0
1.64541 -9.38221 0
3.38096 -7.0037 0
4.14492 -6.65003 0
3.29601 -4.96394 0
4.52207 -3.88256 0
2.1889 -3.31365 0
2.12652 -2.02499 0
-1.52894 -1.34943 0
-1.81715 -0.647041 0
-1.08322 -8.40831 0
-1.84638 -9.25617 0
3.0755 -7.02978 0
2.80118 -7.29553 0
-0.353407 -1.3244 0
0.748294 -2.07837 0
0.0237583 -3.51694 0
-0.369588 -3.30649 0
-0.991239 -8.69425 0
-0.416779 -8.24202 0
-0.6549 -3.89836 0
-1.36356 -4.47225 0
-0.124279 -4.63346 0
-0.764209 -5.20626 0
-0.444244 -4.91986 0
-0.527553 -4.63052 0
0.315463 -7.85081 0
0.301768 -7.36504 0
2.15771 -2.66932 0
1.10424 -2.47837 0
2.86183 -5.48238 0
2.7331 -5.54883 0
0.697789 -4.46134 0
0.376396 -4.6465 0
-1.6489 -7.84791 0
-1.47993 -7.90343 0
0.178146 -4.36082 0
0.509356 -4.15762 0
3.76294 -6.82686 0
4.7401 -6.70609 0
2.8191 -5.1729 0
2.68506 -5.22396 0
3.90904 -4.42325 0
4.2427 -4.61352 0
-0.854864 -7.15595 0
-0.488189 -6.56891 0
2.75208 -5.19843 0
2.2739 -5.38013 0
-0.0156701 -4.82004 0
0.241141 -5.66558 0
2.93834 -7.16266 0
2.59973 -8.16532 0
2.41481 -2.63929 0
2.90414 -2.66566 0
-1.56255 -1.45737 0
-1.63487 -1.3915 0
-1.81904 -6.12085 0
-1.98141 -6.54583 0
0.308616 -7.60793 0
0.347979 -6.55825 0
-1.72706 -6.40678 0
-1.51023 -6.07324 0
-1.00923 -4.18531 0
-0.952353 -3.94666 0
1.96299 -3.98802 0
1.95471 -3.76237 0
-0.922162 -1.63843 0
-1.05957 -1.90411 0
-0.614775 -1.09228 0
-0.653793 -1.09837 0
-3.08383 -6.09227 0
-3.9206 -5.31862 0
-2.34917 -3.03556 0
-2.34994 -2.28271 0
-3.50221 -5.70544 0
-4.22041 -5.38996 0
-3.3709 -6.18549 0
-3.44012 -7.23959 0
-0.604227 -5.06306 0
-1.08253 -4.92669 0
1.29074 -8.42986 0
1.62294 -8.04476 0
-2.25634 -5.7274 0
-2.49423 -5.47379 0
-1.83976 -7.85365 0
-2.38157 -7.7721 0
3.55583 -5.0142 0
3.72218 -5.52994 0
0.112735 -5.24281 0
0.24083 -6.08302 0
1.37055 -8.84813 0
0.424613 -9.07778 0
-3.51443 -6.2321 0
-3.92308 -6.42508 0
-0.704009 -8.46813 0
-0.74162 -8.04027 0
-2.11066 -7.81287 0
-2.55976 -7.43404 0
-2.24612 -7.79249 0
-2.45284 -8.22427 0
-3.31468 -2.45322 0
-3.02065 -2.30213 0
0.897579 -8.96296 0
0.59534 -9.41043 0
2.90456 -5.79186 0
3.24746 -5.62738 0
-1.2899 -1.65648 0
-1.26947 -1.54834 0
1.63097 -2.57385 0
1.11953 -3.36095 0
0.176783 -5.66292 0
-0.0612669 -6.06484 0
-3.81008 -3.52165 0
-3.61803 -4.03617 0
1.50798 -9.11517 0
1.43863 -9.60179 0
0.208806 -5.87297 0
1.07407 -5.77836 0
-0.172915 -3.41172 0
-0.235727 -2.86515 0
2.25672 -4.7629 0
2.45756 -4.96786 0
-2.76303 -6.08425 0
-2.65264 -6.43354 0
-1.67304 -0.998237 0
-1.33694 -0.679828 0
2.86976 -7.22909 0
2.34237 -7.16326 0
-3.86131 -5.5477 0
-4.48214 -5.61588 0
0.510518 -7.96662 0
0.749128 -7.70844 0
-2.10761 -3.84105 0
-2.30464 -3.86786 0
-4.17173 -5.58179 0
-4.91123 -6.05427 0
4.07587 -4.51839 0
5.01901 -4.77579 0
LINES 199 597
2 8 1
2 128 2
2 30 3
2 2 4
2 14 5
2 4 6
2 52 7
2 6 8
2 48 9
2 194 10
2 80 11
2 122 12
2 142 13
2 42 14
2 82 15
2 134 16
2 162 17
2 10 18
2 184 19
2 144 20
2 154 21
2 14 22
2 110 23
2 28 24
2 148 25
2 106 26
2 26 27
2 22 28
2 38 29
2 168 30
2 70 31
2 0 32
2 76 33
2 50 34
2 146 35
2 130 36
2 36 37
2 28 38
2 78 39
2 94 40
2 114 41
2 4 42
2 42 43
2 182 44
2 74 45
2 166 46
2 56 47
2 10 48
2 48 49
2 12 50
2 50 51
2 16 52
2 174 53
2 192 54
2 54 55
2 46 56
2 64 57
2 46 58
2 58 59
2 36 60
2 60 61
2 54 62
2 176 63
2 56 64
2 100 65
2 44 66
2 104 67
2 126 68
2 90 69
2 116 70
2 186 71
2 34 72
2 72 73
2 58 74
2 188 75
2 32 76
2 76 77
2 38 78
2 180 79
2 72 80
2 156 81
2 22 82
2 124 83
2 24 84
2 140 85
2 84 86
2 86 87
2 26 88
2 120 89
2 68 90
2 170 91
2 102 92
2 92 93
2 98 94
2 94 95
2 34 96
2 96 97
2 24 98
2 98 99
2 64 100
2 100 101
2 44 102
2 108 103
2 66 104
2 198 105
2 12 106
2 106 107
2 102 108
2 108 109
2 84 110
2 150 111
2 74 112
2 112 113
2 68 114
2 114 115
2 30 116
2 116 117
2 18 118
2 118 119
2 88 120
2 120 121
2 118 122
2 122 123
2 82 124
2 124 125
2 40 126
2 126 127
2 60 128
2 128 129
2 32 130
2 130 131
2 20 132
2 136 133
2 6 134
2 134 135
2 132 136
2 190 137
2 132 138
2 138 139
2 86 140
2 140 141
2 62 142
2 142 143
2 18 144
2 144 145
2 96 146
2 160 147
2 66 148
2 148 149
2 110 150
2 178 151
2 62 152
2 164 153
2 138 154
2 154 155
2 80 156
2 156 157
2 146 158
2 158 159
2 158 160
2 160 161
2 16 162
2 162 163
2 152 164
2 164 165
2 92 166
2 166 167
2 2 168
2 168 169
2 90 170
2 170 171
2 150 172
2 172 173
2 52 174
2 174 175
2 152 176
2 176 177
2 172 178
2 178 179
2 78 180
2 180 181
2 40 182
2 182 183
2 20 184
2 184 185
2 70 186
2 186 187
2 112 188
2 188 189
2 136 190
2 196 191
2 88 192
2 192 193
2 8 194
2 194 195
2 190 196
2 196 197
2 104 198
2 198 199
CELL_DATA 199
SCALARS radius float
LOOKUP_TABLE default
0.00104476
0.00645172
0.00210285
0.00238879
0.000528562
0.00148198
0.000412052
0.00105418
5.58515e-05
6.95593e-05
4.01189e-07
2.49537e-06
4.82969e-08
0.000532384
0.000129166
0.000628457
0.000386323
3.06407e-05
8.7294e-06
1.14237e-05
3.85803e-06
0.000147763
2.15961e-05
3.17864e-05
2.88834e-07
6.96699e-07
6.52439e-07
6.83583e-05
6.20279e-05
0.00254047
0.000920852
3.99813
3.36246
8.48139e-07
3.80027e-07
0.313264
0.309337
6.59859e-05
3.18099e-05
2.18843e-06
4.38196e-07
0.00218113
0.00217051
4.79102e-07
1.17512e-08
2.47839e-08
1.75162e-08
6.75182e-05
5.11178e-05
2.13359e-06
2.08795e-06
0.000455379
0.000229355
1.016e-07
9.39326e-08
2.03178e-08
1.35905e-08
1.89786e-08
1.68073e-08
0.104518
0.104094
6.03646e-08
2.50254e-08
1.44435e-08
6.90332e-09
3.75427e-07
1.9709e-07
6.93289e-07
4.67823e-07
0.000981552
0.000445694
5.94612e-07
5.04244e-07
1.27813e-08
6.20826e-09
3.81283
2.59193
3.65087e-05
2.21886e-05
4.34488e-07
2.09932e-07
0.000142716
6.61978e-05
2.79292e-05
1.24392e-05
2.19527e-05
1.96864e-05
3.92445e-07
3.23333e-07
5.16555e-07
2.77637e-07
1.86031e-07
1.8282e-07
7.67778e-06
7.61805e-06
7.36725e-07
6.95831e-07
2.17789e-05
2.14561e-05
7.95242e-09
5.58207e-09
3.8498e-07
3.45337e-07
2.452e-07
1.76214e-07
1.79936e-06
1.76385e-06
3.69919e-07
2.11314e-07
2.23782e-05
9.72203e-06
7.74881e-09
5.42836e-09
5.80282e-07
4.80959e-07
0.00192176
0.00183231
1.97838e-05
1.93555e-05
3.55893e-07
2.24235e-07
7.89496e-06
7.81097e-06
9.093e-05
7.72919e-05
1.92588e-06
1.89546e-06
0.0239987
0.0238423
2.03928
2.03681
6.20455e-06
4.13897e-06
0.00127718
0.0012243
4.52608e-06
2.5232e-06
5.26725e-06
3.98923e-06
1.43416e-05
1.00829e-05
5.5843e-08
3.94693e-08
2.75996e-05
2.69312e-05
3.9782e-07
1.40337e-07
3.36705e-07
2.41452e-07
1.04291e-05
3.85145e-06
3.57833e-08
2.15684e-08
4.35593e-06
2.9328e-06
2.59378e-07
2.01638e-07
2.00625e-07
1.61727e-07
1.56665e-07
1.0264e-07
0.000535758
0.000458085
2.68306e-08
2.10154e-08
6.89393e-08
6.78546e-08
0.00634065
0.00620169
3.28488e-07
2.41269e-07
5.99456e-06
5.17314e-06
0.000290325
0.000231497
2.98151e-08
2.21254e-08
4.25381e-06
2.70721e-06
2.54452e-05
1.77055e-05
1.49445e-06
1.47785e-06
1.07778e-05
8.37175e-06
0.000548281
0.000424112
6.7336e-09
4.04184e-09
2.79411e-06
1.57892e-06
2.48601e-07
2.4281e-07
0.000314575
0.000313437
1.7915e-06
1.21949e-06
1.92076e-07
1.17314e-07
