# vtk DataFile Version 3.0
Tree
ASCII
DATASET POLYDATA
POINTS 20 float
0 0 0
0.127403 -0.526228 0
0.0637015 -0.263114 0
-0.377202 -0.555467 0
-0.15675 -0.409291 0
-0.122106 -1.08108 0
-0.139428 -0.745184 0
0.52413 -0.985784 0
0.0955523 -0.394671 0
0.605508 -0.46519 0
0.192351 -0.865484 0
0.156298 -1.52951 0
-0.130767 -0.913131 0
-0.526962 -1.47683 0
-0.328864 -1.19498 0
-0.803908 -0.950728 0
0.174324 -1.1975 0
0.719155 -1.51984 0
-0.427913 -1.3359 0
-0.215284 -1.92617 0
LINES 19 57
2 8 1
2 0 2
2 4 3
2 2 4
2 12 5
2 4 6
2 10 7
2 2 8
2 8 9
2 6 10
2 16 11
2 6 12
2 18 13
2 12 14
2 14 15
2 10 16
2 16 17
2 14 18
2 18 19
CELL_DATA 19
SCALARS radius float
LOOKUP_TABLE default
0.763207
0.909278
0.508937
0.524134
0.186573
0.229989
0.15499
0.847067
0.546515
0.169757
0.0897442
0.193751
0.0617333
0.0920007
0.076869
0.105335
0.0764005
0.0687181
0.0446864
