# vtk DataFile Version 3.0
Tree
ASCII
DATASET POLYDATA
POINTS 202 float
0 0 0
0.0402884 -0.166408 0
0.0201442 -0.083204 0
-0.119282 -0.175654 0
-0.0495688 -0.129429 0
-0.0386132 -0.341867 0
-0.044091 -0.235648 0
0.165745 -0.311732 0
0.0302163 -0.124806 0
0.191478 -0.147106 0
0.0608268 -0.27369 0
0.0494257 -0.483673 0
-0.0413521 -0.288757 0
-0.16664 -0.467015 0
-0.103996 -0.377886 0
-0.254218 -0.300647 0
0.0551262 -0.378682 0
0.227417 -0.480616 0
-0.135318 -0.42245 0
-0.0680788 -0.609108 0
0.113286 -0.292711 0
0.311677 -0.26691 0
0.141272 -0.429649 0
0.115119 -0.623999 0
-0.101698 -0.515779 0
-0.243389 -0.618718 0
-0.0848886 -0.562444 0
0.0102947 -0.740222 0
-0.179107 -0.339266 0
-0.375972 -0.416142 0
0.184344 -0.455132 0
0.373259 -0.540222 0
-0.0844253 -0.152542 0
-0.270945 -0.104775 0
-0.0372969 -0.651333 0
0.195658 -0.79541 0
0.278802 -0.497677 0
0.423634 -0.375395 0
-0.0135011 -0.695777 0
-0.162735 -0.860821 0
-0.172543 -0.567249 0
-0.408814 -0.64219 0
-0.27754 -0.377704 0
-0.392136 -0.212211 0
0.32603 -0.518949 0
0.396039 -0.739803 0
0.0791803 -0.723371 0
0.130613 -0.952521 0
-0.0881182 -0.778299 0
-0.0320043 -0.937469 0
-0.290679 -0.604719 0
-0.321049 -0.788862 0
0.104897 -0.837946 0
0.321088 -0.898223 0
0.361034 -0.629376 0
0.51831 -0.562087 0
-0.349747 -0.623454 0
-0.521543 -0.496232 0
-0.125427 -0.81956 0
-0.228539 -1.01119 0
-0.37928 -0.632822 0
-0.476314 -0.763 0
-0.176983 -0.915375 0
-0.40208 -0.962736 0
0.117755 -0.895233 0
0.0360647 -1.13788 0
0.212993 -0.868084 0
0.308463 -1.05005 0
-0.334838 -0.294958 0
-0.521428 -0.317007 0
0.267041 -0.883154 0
0.495049 -0.937538 0
0.439672 -0.595732 0
0.588157 -0.749005 0
-0.289531 -0.939055 0
-0.344895 -1.09092 0
-0.317213 -1.01499 0
-0.161959 -1.22394 0
0.478991 -0.57891 0
0.588765 -0.416524 0
0.0769098 -1.01656 0
0.228065 -1.21934 0
-0.345805 -0.950896 0
-0.566341 -0.949503 0
0.533878 -0.497717 0
0.517207 -0.256406 0
-0.427797 -0.697911 0
-0.656441 -0.712464 0
0.152488 -1.11795 0
0.0325614 -1.33843 0
0.381045 -0.910346 0
0.475161 -1.13645 0
0.212481 -0.27981 0
0.319254 -0.115932 0
0.513915 -0.672369 0
0.653093 -0.602739 0
-0.239586 -1.11946 0
-0.380067 -1.27452 0
-0.456073 -0.950199 0
-0.530232 -1.14148 0
0.428103 -1.0234 0
0.622552 -1.05433 0
0.0925245 -1.22819 0
0.226686 -1.3936 0
0.0625429 -1.28331 0
-0.122231 -1.38777 0
0.451632 -1.07993 0
0.434183 -1.31521 0
-0.511207 -0.949851 0
-0.713323 -0.889115 0
0.583504 -0.637554 0
0.738241 -0.743221 0
-0.435645 -0.559843 0
-0.655237 -0.469878 0
-0.0298443 -1.33554 0
0.0586182 -1.4926 0
-0.612265 -0.919483 0
-0.716424 -1.04035 0
-0.309827 -1.19699 0
-0.335099 -1.43839 0
0.159605 -1.3109 0
0.371303 -1.45075 0
-0.322463 -1.31769 0
-0.493082 -1.38827 0
0.442907 -1.19757 0
0.629392 -1.23616 0
0.014387 -1.41407 0
-0.112012 -1.58494 0
0.525327 -1.03886 0
0.747498 -0.955124 0
-0.664345 -0.979917 0
-0.686474 -1.22868 0
0.265454 -1.38083 0
0.233135 -1.59937 0
-0.328781 -1.37804 0
-0.263724 -1.56873 0
0.636413 -0.996994 0
0.765493 -1.15136 0
-0.542119 -0.705188 0
-0.804868 -0.62786 0
0.438545 -1.25639 0
0.567404 -1.44278 0
0.660872 -0.690387 0
0.820931 -0.641215 0
-0.407773 -1.35298 0
-0.644974 -1.40739 0
-0.296253 -1.47338 0
-0.445696 -1.58382 0
-0.0488123 -1.49951 0
0.0229887 -1.63809 0
-0.545441 -0.514861 0
-0.662507 -0.312506 0
-0.673494 -0.666524 0
-0.870344 -0.774912 0
-0.0129118 -1.5688 0
-0.0869512 -1.74123 0
-0.675409 -1.1043 0
-0.849487 -1.09612 0
0.249295 -1.4901 0
0.431663 -1.67717 0
0.561322 -0.45712 0
0.757844 -0.45733 0
0.340479 -1.58363 0
0.580919 -1.59455 0
0.699557 -0.716804 0
0.903107 -0.851209 0
0.386071 -1.6304 0
0.187631 -1.81221 0
-0.526373 -1.38018 0
-0.611055 -1.58282 0
-0.0499315 -1.65501 0
-0.275481 -1.79504 0
0.700953 -1.07418 0
0.920832 -1.01646 0
-0.680941 -1.16649 0
-0.825514 -1.35093 0
0.733223 -1.11277 0
0.758494 -1.34505 0
-0.370974 -1.5286 0
-0.521486 -1.73044 0
-0.0684413 -1.69812 0
-0.0325231 -1.90457 0
-0.771919 -0.720718 0
-0.947377 -0.899315 0
0.525543 -0.377062 0
0.659137 -0.298482 0
0.286851 -1.7213 0
0.408193 -1.84732 0
0.745858 -1.22891 0
0.761469 -1.48956 0
-0.568714 -1.4815 0
-0.797978 -1.54218 0
0.752176 -1.28698 0
0.900109 -1.2686 0
-0.44623 -1.62952 0
-0.43878 -1.84368 0
0.237241 -1.76676 0
0.132655 -1.94764 0
0.460699 -1.58909 0
0.731113 -1.66825 0
0.0564873 -1.07722 0
-0.0687115 -1.0579 0
LINES 201 603
2 0 2
2 2 8
2 2 4
2 4 32
2 4 6
2 6 12
2 6 10
2 8 1
2 8 9
2 10 20
2 10 16
2 12 5
2 12 14
2 14 18
2 14 28
2 16 11
2 16 22
2 18 13
2 18 24
2 20 7
2 20 92
2 22 30
2 22 23
2 24 26
2 24 40
2 26 19
2 26 34
2 28 15
2 28 42
2 30 17
2 30 36
2 32 3
2 32 33
2 34 38
2 34 46
2 36 44
2 36 37
2 38 27
2 38 48
2 40 25
2 40 50
2 42 29
2 42 68
2 44 31
2 44 54
2 46 35
2 46 52
2 48 58
2 48 49
2 50 56
2 50 51
2 52 64
2 52 66
2 54 45
2 54 72
2 56 60
2 56 112
2 58 39
2 58 62
2 60 41
2 60 86
2 62 59
2 62 74
2 64 47
2 64 80
2 66 70
2 66 67
2 68 43
2 68 69
2 70 53
2 70 90
2 72 78
2 72 94
2 74 82
2 74 76
2 76 75
2 76 96
2 78 55
2 78 84
2 80 200
2 80 88
2 82 63
2 82 98
2 84 160
2 84 184
2 86 61
2 86 138
2 88 81
2 88 102
2 90 71
2 90 100
2 92 21
2 92 93
2 94 73
2 94 110
2 96 77
2 96 118
2 98 108
2 98 99
2 100 106
2 100 128
2 102 104
2 102 120
2 104 89
2 104 114
2 106 91
2 106 124
2 108 83
2 108 116
2 110 95
2 110 142
2 112 57
2 112 150
2 114 105
2 114 126
2 116 109
2 116 130
2 118 97
2 118 122
2 120 103
2 120 132
2 122 134
2 122 144
2 124 140
2 124 125
2 126 115
2 126 148
2 128 101
2 128 136
2 130 117
2 130 156
2 132 121
2 132 158
2 134 119
2 134 146
2 136 129
2 136 172
2 138 87
2 138 152
2 140 107
2 140 141
2 142 164
2 142 143
2 144 123
2 144 168
2 146 135
2 146 178
2 148 127
2 148 154
2 150 113
2 150 151
2 152 139
2 152 182
2 154 149
2 154 170
2 156 174
2 156 157
2 158 133
2 158 162
2 160 79
2 160 161
2 162 166
2 162 198
2 164 111
2 164 165
2 166 159
2 166 186
2 168 145
2 168 190
2 170 180
2 170 171
2 172 176
2 172 173
2 174 131
2 174 175
2 176 137
2 176 188
2 178 147
2 178 194
2 180 155
2 180 181
2 182 153
2 182 183
2 184 85
2 184 185
2 186 196
2 186 187
2 188 192
2 188 189
2 190 169
2 190 191
2 192 177
2 192 193
2 194 179
2 194 195
2 196 167
2 196 197
2 198 163
2 198 199
2 200 65
2 200 201
CELL_DATA 201
SCALARS radius float
LOOKUP_TABLE default
1.06159
0.471932
1.10225
0.337546
1.10201
1.0211
0.60201
0.305582
0.426746
0.335425
0.556421
0.296594
1.04418
1.02113
0.449183
0.330284
0.555216
0.272923
1.03545
0.268109
0.316368
0.531068
0.359191
0.976243
0.518003
0.245097
0.986685
0.275193
0.413219
0.237582
0.542688
0.223739
0.327731
0.689693
0.840676
0.515704
0.317499
0.225102
0.698272
0.255288
0.511786
0.264474
0.348155
0.21885
0.519412
0.276116
0.826441
0.681712
0.287965
0.478202
0.292417
0.68868
0.590867
0.254787
0.495099
0.394635
0.351024
0.208469
0.681671
0.178626
0.402971
0.242591
0.667269
0.206326
0.688919
0.565732
0.280111
0.23264
0.271931
0.19961
0.563886
0.361293
0.40105
0.471186
0.558637
0.214346
0.54929
0.181661
0.353977
0.236743
0.659757
0.193249
0.461821
0.247715
0.278598
0.20821
0.384689
0.231306
0.639207
0.225707
0.541395
0.215779
0.255161
0.218138
0.360926
0.22807
0.522784
0.419606
0.25426
0.379272
0.46062
0.473561
0.515762
0.18635
0.459725
0.184348
0.352926
0.178758
0.404472
0.193961
0.327093
0.209056
0.30123
0.207779
0.42964
0.206597
0.367517
0.205286
0.499079
0.20535
0.494016
0.385108
0.369514
0.274194
0.235561
0.194612
0.401447
0.198186
0.435137
0.18732
0.335939
0.209563
0.464297
0.173633
0.365809
0.204604
0.400087
0.202059
0.345373
0.170556
0.238781
0.257235
0.220614
0.18945
0.336035
0.192972
0.328077
0.194912
0.362214
0.199695
0.23659
0.206307
0.286717
0.178671
0.329054
0.263105
0.21772
0.193656
0.434688
0.157555
0.222963
0.355009
0.28658
0.154843
0.233907
0.167757
0.328686
0.195412
0.281851
0.248277
0.236801
0.350522
0.227135
0.16396
0.228215
0.154902
0.328322
0.180076
0.285405
0.151379
0.220072
0.187804
0.229454
0.190776
0.202981
0.25604
0.208661
0.244221
0.230026
0.184754
0.223971
0.157375
0.198909
0.190191
0.217242
0.162206
0.215326
0.187114
0.231457
0.159395
0.189059
