# vtk DataFile Version 3.0
Tree
ASCII
DATASET POLYDATA
POINTS 10 float
0 0 0
0.180175 -0.744199 0
0.0900876 -0.3721 0
-0.533445 -0.78555 0
-0.221679 -0.578825 0
-0.172683 -1.52887 0
-0.197181 -1.05385 0
0.741232 -1.39411 0
0.272026 -1.22398 0
0.856318 -0.657878 0
LINES 9 27
2 2 1
2 0 2
2 4 3
2 2 4
2 6 5
2 4 6
2 8 7
2 6 8
2 8 9
CELL_DATA 9
SCALARS radius float
LOOKUP_TABLE default
0.907056
0.963272
0.497852
0.528401
0.265384
0.289
0.147622
0.175948
0.130647
