# vtk DataFile Version 3.0
Tree
ASCII
DATASET POLYDATA
POINTS 114 float
0.019839 0.001786 -0.005
0.019869 0.000917 0.001569
0.0196063 0.00245661 -0.00236047
0.018119 0.008252 0.001185
0.0196831 0.00119442 0.00068413
0.019498 -0.00271 0.009563
0.0197692 0.00198718 -0.00420814
0.017753 -0.009047 0
0.01902 0.00469076 0.000387473
0.018287 0.007238 0.01043
0.0195163 -0.000102025 0.00760208
0.019352 0.002142 0.012707
0.0180378 0.00722565 0.000898521
0.014257 0.013894 0.002044
0.0193223 -0.00171659 0.00919272
0.018166 -0.006605 0.015182
0.0181151 -0.00593914 0.000835155
0.016742 -0.010558 0.007792
0.0175515 0.0079047 0.00607531
0.014613 0.013258 0.009224
0.0173796 -0.00798742 0.000643101
0.01356 -0.014576 0.001074
0.0192383 0.00187319 0.0116242
0.018129 0.005832 0.017735
0.0189333 -0.00280761 0.0131614
0.018924 -0.001423 0.018233
0.0145317 0.0124979 0.00287529
0.010917 0.016529 0.006322
0.0164908 0.00980234 0.00831295
0.015642 0.011135 0.015986
0.0187753 -0.00288336 0.015474
0.017823 -0.006019 0.019899
0.0127214 0.0143556 0.0034735
0.008572 0.017993 0.000501
0.0148129 -0.0121396 0.00256036
0.012578 -0.015287 0.006998
0.0165732 -0.00974217 0.00698513
0.01457 -0.012923 0.012861
0.0152925 -0.0116349 0.0122553
0.014861 -0.011958 0.017413
0.01837 0.00432914 0.0172285
0.017722 0.004989 0.02291
0.0151428 0.0116104 0.0132613
0.012889 0.014356 0.015024
0.0152559 0.0114351 0.0152703
0.014703 0.011547 0.0208
0.0174842 0.00566041 0.0217488
0.016132 0.008141 0.025256
0.0131151 -0.0138974 0.00391331
0.006996 -0.018625 0.003666
0.0114197 0.0157249 0.00575304
0.008966 0.017461 0.011007
0.0128808 0.0139147 0.0143631
0.00964 0.016702 0.015182
0.0150025 -0.0116735 0.0105581
0.010019 -0.016642 0.013308
0.0184175 -0.00362171 0.0179412
0.018056 -0.00211 0.024563
0.0140646 0.0124352 0.0178602
0.011475 0.014911 0.01978
0.0178607 -0.00505078 0.0194765
0.015587 -0.009206 0.025132
0.0169128 -0.00649167 0.0231859
0.017074 -0.005448 0.026261
0.0103771 0.0160492 0.00293671
0.003979 0.019438 0.005372
0.0180768 -0.00163755 0.0231636
0.017717 0.001305 0.027133
0.0121762 -0.0143861 0.0137086
0.010604 -0.015683 0.018667
0.0158832 -0.00835691 0.0239233
0.012873 -0.013029 0.023588
0.0141685 0.0120947 0.019854
0.013576 0.011716 0.026432
0.00920172 -0.0167628 0.00534945
0.006132 -0.018728 0.009325
0.0103343 0.0157831 0.0157933
0.00749 0.017402 0.018535
0.00565763 0.0183718 0.00600195
0.002662 0.019503 0.010405
0.00752446 -0.0179496 0.00387664
0.003996 -0.01952 0
0.00699279 0.0175875 0.00389543
0.000699 0.019903 0.00037
0.00508906 -0.0188499 0.00273523
0.001851 -0.019819 0.003123
0.0124041 0.0138814 0.0195493
0.010158 0.015161 0.024029
0.00404508 0.0189851 0.00988614
0.004178 0.018946 0.013584
0.0168177 0.0065945 0.0241595
0.016104 0.006131 0.0302
0.00445832 0.0187345 0.00723493
0.000201 0.01978 0.007318
0.0169837 -0.00558369 0.0257068
0.016832 -0.003808 0.02999
0.0102546 -0.0156804 0.0158773
0.006661 -0.017897 0.017204
0.0166955 -0.0063824 0.025131
0.015143 -0.0085 0.029337
0.00651847 -0.0181784 0.0091591
0.004004 -0.019011 0.013276
0.0135978 0.0117679 0.0253783
0.012589 0.011356 0.031592
0.00670826 -0.0178999 0.00760003
0.001166 -0.019728 0.007547
0.0130341 -0.0119044 0.0240738
0.009148 -0.015687 0.024844
0.017733 -9.39954e-05 0.0261826
0.016726 0.00035 0.032536
0.00859705 -0.0166213 0.0175909
0.007415 -0.017141 0.02086
0.0105488 0.0147161 0.0235792
0.008345 0.0154 0.028822
LINES 113 339
2 4 1
2 6 2
2 12 3
2 2 4
2 14 5
2 0 6
2 20 7
2 2 8
2 18 9
2 4 10
2 22 11
2 8 12
2 26 13
2 10 14
2 24 15
2 6 16
2 36 17
2 8 18
2 28 19
2 16 20
2 34 21
2 10 22
2 40 23
2 14 24
2 30 25
2 12 26
2 50 27
2 18 28
2 44 29
2 24 30
2 60 31
2 26 32
2 64 33
2 20 34
2 48 35
2 16 36
2 38 37
2 54 38
2 38 39
2 22 40
2 46 41
2 28 42
2 52 43
2 42 44
2 72 45
2 40 46
2 90 47
2 34 48
2 80 49
2 32 50
2 50 51
2 42 52
2 76 53
2 36 54
2 68 55
2 30 56
2 66 57
2 44 58
2 86 59
2 56 60
2 70 61
2 60 62
2 94 63
2 32 64
2 78 65
2 56 66
2 108 67
2 54 68
2 96 69
2 62 70
2 106 71
2 58 72
2 102 73
2 48 74
2 100 75
2 52 76
2 76 77
2 82 78
2 88 79
2 74 80
2 84 81
2 64 82
2 82 83
2 80 84
2 84 85
2 58 86
2 112 87
2 92 88
2 88 89
2 46 90
2 90 91
2 78 92
2 92 93
2 98 94
2 94 95
2 68 96
2 110 97
2 62 98
2 98 99
2 104 100
2 100 101
2 72 102
2 102 103
2 74 104
2 104 105
2 70 106
2 106 107
2 66 108
2 108 109
2 96 110
2 110 111
2 86 112
2 112 113
CELL_DATA 113
SCALARS radius float
LOOKUP_TABLE default
0.140889
0.930363
0.149606
0.720883
0.157219
1.04221
0.162363
0.75518
0.22143
0.719085
0.167047
0.573167
0.180087
0.64811
0.233405
0.688761
0.169614
0.623493
0.22355
0.562683
0.216055
0.463524
0.207258
0.645011
0.220794
0.569749
0.193092
0.614041
0.169492
0.634658
0.181127
0.563687
0.237781
0.558141
0.230564
0.529659
0.215291
0.324361
0.289038
0.456176
0.229556
0.604001
0.181356
0.547315
0.206842
0.441445
0.282067
0.547133
0.198466
0.32063
0.295345
0.383496
0.244892
0.523796
0.261718
0.625622
0.220334
0.541842
0.220633
0.552372
0.230586
0.545802
0.196726
0.526739
0.240092
0.424202
0.260144
0.478537
0.282672
0.444898
0.265392
0.431507
0.245646
0.53313
0.209208
0.36947
0.329423
0.469529
0.275625
0.410413
0.308254
0.510065
0.307904
0.394321
0.317553
0.428604
0.22952
0.393345
0.341766
0.4197
0.372021
0.447594
0.306569
0.352858
0.331169
0.450874
0.308511
0.420841
0.312781
0.365612
0.341182
0.415044
0.384114
0.435154
0.322457
0.423211
0.385093
0.403383
0.363505
0.410296
0.341157
0.408155
0.382367
