# vtk DataFile Version 3.0
Tree
ASCII
DATASET POLYDATA
POINTS 12 float
0.019839 0.001786 -0.005
0.019869 0.000917 0.001569
0.0196063 0.00245661 -0.00236047
0.018119 0.008252 0.001185
0.0196831 0.00119442 0.00068413
0.019498 -0.00271 0.009563
0.0197692 0.00198718 -0.00420814
0.017753 -0.009047 0
0.01902 0.00469076 0.000387473
0.018287 0.007238 0.01043
0.0195163 -0.000102025 0.00760208
0.019352 0.002142 0.012707
LINES 11 33
2 4 1
2 6 2
2 8 3
2 2 4
2 10 5
2 0 6
2 6 7
2 2 8
2 8 9
2 4 10
2 10 11
CELL_DATA 11
SCALARS radius float
LOOKUP_TABLE default
0.267547
0.747973
0.382015
0.624228
0.44782
0.800243
0.45469
0.559586
0.492525
0.607395
0.512077
