# vtk DataFile Version 3.0
Tree
ASCII
DATASET POLYDATA
POINTS 8 float
0.019839 0.001786 -0.005
0.019869 0.000917 0.001569
0.0196063 0.00245661 -0.00236047
0.018119 0.008252 0.001185
0.0196831 0.00119442 0.00068413
0.019498 -0.00271 0.009563
0.0197692 0.00198718 -0.00420814
0.017753 -0.009047 0
LINES 7 21
2 4 1
2 6 2
2 2 3
2 2 4
2 4 5
2 0 6
2 6 7
CELL_DATA 7
SCALARS radius float
LOOKUP_TABLE default
0.311222
0.669354
0.459426
0.587637
0.556965
0.753859
0.50466
