# vtk DataFile Version 3.0
Tree
ASCII
DATASET POLYDATA
POINTS 36 float
0.019839 0.001786 -0.005
0.019869 0.000917 0.001569
0.0196063 0.00245661 -0.00236047
0.018119 0.008252 0.001185
0.0196831 0.00119442 0.00068413
0.019498 -0.00271 0.009563
0.0197692 0.00198718 -0.00420814
0.017753 -0.009047 0
0.01902 0.00469076 0.000387473
0.018287 0.007238 0.01043
0.0195163 -0.000102025 0.00760208
0.019352 0.002142 0.012707
0.0180378 0.00722565 0.000898521
0.014257 0.013894 0.002044
0.0193223 -0.00171659 0.00919272
0.018166 -0.006605 0.015182
0.0181151 -0.00593914 0.000835155
0.016742 -0.010558 0.007792
0.0175515 0.0079047 0.00607531
0.014613 0.013258 0.009224
0.0173796 -0.00798742 0.000643101
0.01356 -0.014576 0.001074
0.0192383 0.00187319 0.0116242
0.018129 0.005832 0.017735
0.0189333 -0.00280761 0.0131614
0.018924 -0.001423 0.018233
0.0145317 0.0124979 0.00287529
0.010917 0.016529 0.006322
0.0164908 0.00980234 0.00831295
0.015642 0.011135 0.015986
0.0187753 -0.00288336 0.015474
0.017823 -0.006019 0.019899
0.0127214 0.0143556 0.0034735
0.008572 0.017993 0.000501
0.0148129 -0.0121396 0.00256036
0.012578 -0.015287 0.006998
LINES 35 105
2 4 1
2 6 2
2 12 3
2 2 4
2 14 5
2 0 6
2 20 7
2 2 8
2 18 9
2 4 10
2 22 11
2 8 12
2 26 13
2 10 14
2 24 15
2 6 16
2 16 17
2 8 18
2 28 19
2 16 20
2 34 21
2 10 22
2 22 23
2 14 24
2 30 25
2 12 26
2 32 27
2 18 28
2 28 29
2 24 30
2 30 31
2 26 32
2 32 33
2 20 34
2 34 35
CELL_DATA 35
SCALARS radius float
LOOKUP_TABLE default
0.1931
0.837412
0.210514
0.660711
0.232619
0.915219
0.241593
0.668551
0.323921
0.655167
0.262571
0.538673
0.275127
0.573736
0.366748
0.563962
0.364653
0.522334
0.344941
0.507722
0.35501
0.452037
0.420336
0.560695
0.368865
0.527735
0.374726
0.476987
0.407122
0.502575
0.424976
0.50153
0.418947
0.488791
0.416089
