# vtk DataFile Version 3.0
Tree
ASCII
DATASET POLYDATA
POINTS 44 float
0.019839 0.001786 -0.005
0.019869 0.000917 0.001569
0.0196063 0.00245661 -0.00236047
0.018119 0.008252 0.001185
0.0196831 0.00119442 0.00068413
0.019498 -0.00271 0.009563
0.0197692 0.00198718 -0.00420814
0.017753 -0.009047 0
0.01902 0.00469076 0.000387473
0.018287 0.007238 0.01043
0.0195163 -0.000102025 0.00760208
0.019352 0.002142 0.012707
0.0180378 0.00722565 0.000898521
0.014257 0.013894 0.002044
0.0193223 -0.00171659 0.00919272
0.018166 -0.006605 0.015182
0.0181151 -0.00593914 0.000835155
0.016742 -0.010558 0.007792
0.0175515 0.0079047 0.00607531
0.014613 0.013258 0.009224
0.0173796 -0.00798742 0.000643101
0.01356 -0.014576 0.001074
0.0192383 0.00187319 0.0116242
0.018129 0.005832 0.017735
0.0189333 -0.00280761 0.0131614
0.018924 -0.001423 0.018233
0.0145317 0.0124979 0.00287529
0.010917 0.016529 0.006322
0.0164908 0.00980234 0.00831295
0.015642 0.011135 0.015986
0.0187753 -0.00288336 0.015474
0.017823 -0.006019 0.019899
0.0127214 0.0143556 0.0034735
0.008572 0.017993 0.000501
0.0148129 -0.0121396 0.00256036
0.012578 -0.015287 0.006998
0.0165732 -0.00974217 0.00698513
0.01457 -0.012923 0.012861
0.0152925 -0.0116349 0.0122553
0.014861 -0.011958 0.017413
0.01837 0.00432914 0.0172285
0.017722 0.004989 0.02291
0.0151428 0.0116104 0.0132613
0.012889 0.014356 0.015024
LINES 43 129
2 4 1
2 6 2
2 12 3
2 2 4
2 14 5
2 0 6
2 20 7
2 2 8
2 18 9
2 4 10
2 22 11
2 8 12
2 26 13
2 10 14
2 24 15
2 6 16
2 36 17
2 8 18
2 28 19
2 16 20
2 34 21
2 10 22
2 40 23
2 14 24
2 30 25
2 12 26
2 32 27
2 18 28
2 42 29
2 24 30
2 30 31
2 26 32
2 32 33
2 20 34
2 34 35
2 16 36
2 38 37
2 36 38
2 38 39
2 22 40
2 40 41
2 28 42
2 42 43
CELL_DATA 43
SCALARS radius float
LOOKUP_TABLE default
0.182726
0.836418
0.199381
0.661966
0.21803
0.936813
0.223107
0.665755
0.301995
0.657292
0.233605
0.510187
0.260577
0.537753
0.343747
0.618855
0.242679
0.545457
0.316663
0.468872
0.327846
0.504578
0.317742
0.52553
0.345732
0.499827
0.354909
0.512668
0.355385
0.471055
0.398323
0.475008
0.396792
0.45139
0.38425
0.511637
0.327058
0.49275
0.43909
0.487303
0.437321
0.46874
0.387322
