# vtk DataFile Version 3.0
Tree
ASCII
DATASET POLYDATA
POINTS 6 float
0.019839 0.001786 -0.005
0.019869 0.000917 0.001569
0.0196063 0.00245661 -0.00236047
0.018119 0.008252 0.001185
0.0196831 0.00119442 0.00068413
0.019498 -0.00271 0.009563
LINES 5 15
2 4 1
2 0 2
2 2 3
2 2 4
2 4 5
CELL_DATA 5
SCALARS radius float
LOOKUP_TABLE default
0.335327
0.721197
0.49501
0.633151
0.600104
