# vtk DataFile Version 3.0
Tree
ASCII
DATASET POLYDATA
POINTS 162 float
0.019839 0.001786 -0.005
0.019869 0.000917 0.001569
0.0196063 0.00245661 -0.00236047
0.018119 0.008252 0.001185
0.0196831 0.00119442 0.00068413
0.019498 -0.00271 0.009563
0.0197692 0.00198718 -0.00420814
0.017753 -0.009047 0
0.01902 0.00469076 0.000387473
0.018287 0.007238 0.01043
0.0195163 -0.000102025 0.00760208
0.019352 0.002142 0.012707
0.0180378 0.00722565 0.000898521
0.014257 0.013894 0.002044
0.0193223 -0.00171659 0.00919272
0.018166 -0.006605 0.015182
0.0181151 -0.00593914 0.000835155
0.016742 -0.010558 0.007792
0.0175515 0.0079047 0.00607531
0.014613 0.013258 0.009224
0.0173796 -0.00798742 0.000643101
0.01356 -0.014576 0.001074
0.0192383 0.00187319 0.0116242
0.018129 0.005832 0.017735
0.0189333 -0.00280761 0.0131614
0.018924 -0.001423 0.018233
0.0145317 0.0124979 0.00287529
0.010917 0.016529 0.006322
0.0164908 0.00980234 0.00831295
0.015642 0.011135 0.015986
0.0187753 -0.00288336 0.015474
0.017823 -0.006019 0.019899
0.0127214 0.0143556 0.0034735
0.008572 0.017993 0.000501
0.0148129 -0.0121396 0.00256036
0.012578 -0.015287 0.006998
0.0165732 -0.00974217 0.00698513
0.01457 -0.012923 0.012861
0.0152925 -0.0116349 0.0122553
0.014861 -0.011958 0.017413
0.01837 0.00432914 0.0172285
0.017722 0.004989 0.02291
0.0151428 0.0116104 0.0132613
0.012889 0.014356 0.015024
0.0152559 0.0114351 0.0152703
0.014703 0.011547 0.0208
0.0174842 0.00566041 0.0217488
0.016132 0.008141 0.025256
0.0131151 -0.0138974 0.00391331
0.006996 -0.018625 0.003666
0.0114197 0.0157249 0.00575304
0.008966 0.017461 0.011007
0.0128808 0.0139147 0.0143631
0.00964 0.016702 0.015182
0.0150025 -0.0116735 0.0105581
0.010019 -0.016642 0.013308
0.0184175 -0.00362171 0.0179412
0.018056 -0.00211 0.024563
0.0140646 0.0124352 0.0178602
0.011475 0.014911 0.01978
0.0178607 -0.00505078 0.0194765
0.015587 -0.009206 0.025132
0.0169128 -0.00649167 0.0231859
0.017074 -0.005448 0.026261
0.0103771 0.0160492 0.00293671
0.003979 0.019438 0.005372
0.0180768 -0.00163755 0.0231636
0.017717 0.001305 0.027133
0.0121762 -0.0143861 0.0137086
0.010604 -0.015683 0.018667
0.0158832 -0.00835691 0.0239233
0.012873 -0.013029 0.023588
0.0141685 0.0120947 0.019854
0.013576 0.011716 0.026432
0.00920172 -0.0167628 0.00534945
0.006132 -0.018728 0.009325
0.0103343 0.0157831 0.0157933
0.00749 0.017402 0.018535
0.00565763 0.0183718 0.00600195
0.002662 0.019503 0.010405
0.00752446 -0.0179496 0.00387664
0.003996 -0.01952 0
0.00699279 0.0175875 0.00389543
0.000699 0.019903 0.00037
0.00508906 -0.0188499 0.00273523
0.001851 -0.019819 0.003123
0.0124041 0.0138814 0.0195493
0.010158 0.015161 0.024029
0.00404508 0.0189851 0.00988614
0.004178 0.018946 0.013584
0.0168177 0.0065945 0.0241595
0.016104 0.006131 0.0302
0.00445832 0.0187345 0.00723493
0.000201 0.01978 0.007318
0.0169837 -0.00558369 0.0257068
0.016832 -0.003808 0.02999
0.0102546 -0.0156804 0.0158773
0.006661 -0.017897 0.017204
0.0166955 -0.0063824 0.025131
0.015143 -0.0085 0.029337
0.00651847 -0.0181784 0.0091591
0.004004 -0.019011 0.013276
0.0135978 0.0117679 0.0253783
0.012589 0.011356 0.031592
0.00670826 -0.0178999 0.00760003
0.001166 -0.019728 0.007547
0.0130341 -0.0119044 0.0240738
0.009148 -0.015687 0.024844
0.017733 -9.39954e-05 0.0261826
0.016726 0.00035 0.032536
0.00859705 -0.0166213 0.0175909
0.007415 -0.017141 0.02086
0.0105488 0.0147161 0.0235792
0.008345 0.0154 0.028822
0.00267777 -0.0193915 0.00316668
-0.002189 -0.019742 0.004626
0.00900439 0.0154458 0.0252288
0.006922 0.016736 0.024977
0.00136549 0.0192935 0.00820933
-0.001722 0.019536 0.01062
0.00771119 0.0169931 0.0170605
0.003404 0.018717 0.017969
0.0141038 -0.0104694 0.0247832
0.011924 -0.01255 0.029603
0.00163333 0.0190881 0.00220682
-0.003157 0.019639 0.002901
0.00510196 0.0179118 0.0186237
0.003315 0.018304 0.021605
-0.000201087 0.0193482 0.0105781
-0.001583 0.019281 0.014603
0.0167852 0.00149848 0.0305342
0.015499 0.005086 0.034463
0.0166861 -0.00478546 0.0288134
0.015324 -0.005336 0.034741
0.0070231 -0.0174707 0.0174349
0.003301 -0.01877 0.017665
0.015437 -0.00597631 0.0326986
0.014171 -0.008252 0.034221
0.00396707 -0.0188009 0.0115654
0.00028 -0.01945 0.013048
0.0166518 0.000804927 0.0321232
0.016014 7.2e-05 0.035736
-0.00196103 0.019263 0.00181105
-0.005729 0.019083 0
0.0123135 0.0117835 0.0305329
0.010452 0.012412 0.034911
0.000365852 -0.0195012 0.00311736
-0.00445 -0.019499 0
0.00180031 -0.0190471 0.0134163
-0.000611 -0.019124 0.016905
0.00388107 0.0182786 0.0184331
-0.000344 0.018979 0.018525
-0.00156319 -0.0195361 0.00424132
-0.005566 -0.019011 0.006512
0.00742782 -0.0170416 0.0197116
0.003876 -0.018027 0.022698
0.00812139 0.015436 0.0281305
0.006416 0.01545 0.032512
0.0125935 -0.0115234 0.0290126
0.011201 -0.011856 0.03438
0.00101614 0.0194394 0.00794193
-0.00512 0.019119 0.007414
LINES 161 483
2 4 1
2 6 2
2 12 3
2 2 4
2 14 5
2 0 6
2 20 7
2 2 8
2 18 9
2 4 10
2 22 11
2 8 12
2 26 13
2 10 14
2 24 15
2 6 16
2 36 17
2 8 18
2 28 19
2 16 20
2 34 21
2 10 22
2 40 23
2 14 24
2 30 25
2 12 26
2 50 27
2 18 28
2 44 29
2 24 30
2 60 31
2 26 32
2 64 33
2 20 34
2 48 35
2 16 36
2 38 37
2 54 38
2 38 39
2 22 40
2 46 41
2 28 42
2 52 43
2 42 44
2 72 45
2 40 46
2 90 47
2 34 48
2 80 49
2 32 50
2 50 51
2 42 52
2 76 53
2 36 54
2 68 55
2 30 56
2 66 57
2 44 58
2 86 59
2 56 60
2 70 61
2 60 62
2 94 63
2 32 64
2 78 65
2 56 66
2 108 67
2 54 68
2 96 69
2 62 70
2 106 71
2 58 72
2 102 73
2 48 74
2 100 75
2 52 76
2 120 77
2 82 78
2 88 79
2 74 80
2 84 81
2 64 82
2 124 83
2 80 84
2 114 85
2 58 86
2 112 87
2 92 88
2 88 89
2 46 90
2 90 91
2 78 92
2 160 93
2 98 94
2 132 95
2 68 96
2 134 97
2 62 98
2 98 99
2 104 100
2 138 101
2 72 102
2 144 103
2 74 104
2 104 105
2 122 106
2 106 107
2 66 108
2 140 109
2 96 110
2 154 111
2 86 112
2 156 113
2 84 114
2 152 115
2 112 116
2 116 117
2 92 118
2 128 119
2 76 120
2 150 121
2 70 122
2 158 123
2 82 124
2 142 125
2 120 126
2 126 127
2 118 128
2 128 129
2 108 130
2 130 131
2 94 132
2 136 133
2 110 134
2 134 135
2 132 136
2 136 137
2 100 138
2 148 139
2 130 140
2 140 141
2 124 142
2 142 143
2 102 144
2 144 145
2 114 146
2 146 147
2 138 148
2 148 149
2 126 150
2 150 151
2 146 152
2 152 153
2 110 154
2 154 155
2 116 156
2 156 157
2 122 158
2 158 159
2 118 160
2 160 161
CELL_DATA 161
SCALARS radius float
LOOKUP_TABLE default
0.128416
0.963895
0.135485
0.729774
0.141583
1.08038
0.146271
0.797332
0.199414
0.728446
0.151099
0.607893
0.160531
0.678846
0.208329
0.714973
0.151814
0.655966
0.199926
0.604188
0.191731
0.419272
0.187471
0.676787
0.195849
0.605642
0.170742
0.649765
0.147961
0.670142
0.157809
0.601859
0.207786
0.601317
0.202467
0.525273
0.190751
0.287388
0.256092
0.412626
0.207641
0.643393
0.150712
0.556463
0.17599
0.399301
0.255139
0.594748
0.162199
0.283518
0.261159
0.454726
0.18495
0.521012
0.226881
0.664519
0.184805
0.552954
0.185551
0.583157
0.192084
0.579279
0.1561
0.580111
0.200823
0.456493
0.206936
0.490063
0.238328
0.468255
0.215956
0.424615
0.196909
0.586821
0.164304
0.449139
0.211484
0.501865
0.225858
0.476821
0.23524
0.571085
0.22761
0.470481
0.188263
0.452274
0.179819
0.322322
0.280056
0.379632
0.336504
0.490909
0.200136
0.420527
0.221229
0.473286
0.200689
0.450968
0.258867
0.421125
0.233389
0.414288
0.254003
0.454148
0.26676
0.344376
0.313358
0.446165
0.21255
0.452217
0.236414
0.441614
0.230496
0.449999
0.220241
0.431444
0.26417
0.439369
0.246551
0.438431
0.221905
0.457223
0.241792
0.391158
0.252101
0.421374
0.293634
0.361447
0.318252
0.430803
0.321805
0.413232
0.296484
0.345064
0.320765
0.390912
0.322924
0.412618
0.265834
0.359927
0.333298
0.363569
0.317597
0.398896
0.361097
0.438736
0.318955
0.386054
0.338398
0.367171
0.337879
0.37326
0.345719
0.371791
0.336723
0.395523
0.36749
0.379701
0.343716
0.335005
0.309269
