# vtk DataFile Version 3.0
Tree
ASCII
DATASET POLYDATA
POINTS 18 float
0.019839 0.001786 -0.005
0.019869 0.000917 0.001569
0.0196063 0.00245661 -0.00236047
0.018119 0.008252 0.001185
0.0196831 0.00119442 0.00068413
0.019498 -0.00271 0.009563
0.0197692 0.00198718 -0.00420814
0.017753 -0.009047 0
0.01902 0.00469076 0.000387473
0.018287 0.007238 0.01043
0.0195163 -0.000102025 0.00760208
0.019352 0.002142 0.012707
0.0180378 0.00722565 0.000898521
0.014257 0.013894 0.002044
0.0193223 -0.00171659 0.00919272
0.018166 -0.006605 0.015182
0.0181151 -0.00593914 0.000835155
0.016742 -0.010558 0.007792
LINES 17 51
2 4 1
2 6 2
2 12 3
2 2 4
2 14 5
2 0 6
2 16 7
2 2 8
2 8 9
2 4 10
2 10 11
2 8 12
2 12 13
2 10 14
2 14 15
2 6 16
2 16 17
CELL_DATA 17
SCALARS radius float
LOOKUP_TABLE default
0.236162
0.766839
0.274708
0.635117
0.311494
0.843333
0.365231
0.579634
0.43514
0.624041
0.428947
0.482531
0.450813
0.547475
0.511558
0.529973
0.464367
