# vtk DataFile Version 3.0
Tree
ASCII
DATASET POLYDATA
POINTS 128 float
0 0 0
1 0 0
1.64721 0.470228 0
1.64721 -0.470228 0
2.24227 0.705828 0
2.24227 0.234628 0
2.24227 -0.234628 0
2.24227 -0.705828 0
2.74123 0.820655 0
2.74123 0.591001 0
2.74123 0.349455 0
2.74123 0.119802 0
2.74123 -0.119802 0
2.74123 -0.349455 0
2.74123 -0.591001 0
2.74123 -0.820655 0
3.14706 0.876074 0
3.14706 0.765235 0
3.14706 0.64642 0
3.14706 0.535582 0
3.14706 0.404874 0
3.14706 0.294036 0
3.14706 0.175221 0
3.14706 0.0643827 0
3.14706 -0.0643827 0
3.14706 -0.175221 0
3.14706 -0.294036 0
3.14706 -0.404874 0
3.14706 -0.535582 0
3.14706 -0.64642 0
3.14706 -0.765235 0
3.14706 -0.876074 0
3.47366 0.902727 0
3.47366 0.84942 0
3.47366 0.791889 0
3.47366 0.738582 0
3.47366 0.673074 0
3.47366 0.619767 0
3.47366 0.562236 0
3.47366 0.508929 0
3.47366 0.431528 0
3.47366 0.378221 0
3.47366 0.32069 0
3.47366 0.267382 0
3.47366 0.201874 0
3.47366 0.148567 0
3.47366 0.0910363 0
3.47366 0.0377292 0
3.47366 -0.0377292 0
3.47366 -0.0910363 0
3.47366 -0.148567 0
3.47366 -0.201874 0
3.47366 -0.267382 0
3.47366 -0.32069 0
3.47366 -0.378221 0
3.47366 -0.431528 0
3.47366 -0.508929 0
3.47366 -0.562236 0
3.47366 -0.619767 0
3.47366 -0.673074 0
3.47366 -0.738582 0
3.47366 -0.791889 0
3.47366 -0.84942 0
3.47366 -0.902727 0
3.73549 0.91553 0
3.73549 0.889925 0
3.73549 0.862223 0
3.73549 0.836617 0
3.73549 0.804692 0
3.73549 0.779086 0
3.73549 0.751385 0
3.73549 0.725779 0
3.73549 0.685877 0
3.73549 0.660271 0
3.73549 0.63257 0
3.73549 0.606964 0
3.73549 0.575038 0
3.73549 0.549433 0
3.73549 0.521731 0
3.73549 0.496126 0
3.73549 0.444331 0
3.73549 0.418725 0
3.73549 0.391023 0
3.73549 0.365418 0
3.73549 0.333492 0
3.73549 0.307887 0
3.73549 0.280185 0
3.73549 0.25458 0
3.73549 0.214677 0
3.73549 0.189072 0
3.73549 0.16137 0
3.73549 0.135765 0
3.73549 0.103839 0
3.73549 0.0782335 0
3.73549 0.0505319 0
3.73549 0.0249264 0
3.73549 -0.0249264 0
3.73549 -0.0505319 0
3.73549 -0.0782335 0
3.73549 -0.103839 0
3.73549 -0.135765 0
3.73549 -0.16137 0
3.73549 -0.189072 0
3.73549 -0.214677 0
3.73549 -0.25458 0
3.73549 -0.280185 0
3.73549 -0.307887 0
3.73549 -0.333492 0
3.73549 -0.365418 0
3.73549 -0.391023 0
3.73549 -0.418725 0
3.73549 -0.444331 0
3.73549 -0.496126 0
3.73549 -0.521731 0
3.73549 -0.549433 0
3.73549 -0.575038 0
3.73549 -0.606964 0
3.73549 -0.63257 0
3.73549 -0.660271 0
3.73549 -0.685877 0
3.73549 -0.725779 0
3.73549 -0.751385 0
3.73549 -0.779086 0
3.73549 -0.804692 0
3.73549 -0.836617 0
3.73549 -0.862223 0
3.73549 -0.889925 0
3.73549 -0.91553 0
LINES 127 381
2 0 1
2 1 2
2 1 3
2 2 4
2 2 5
2 3 6
2 3 7
2 4 8
2 4 9
2 5 10
2 5 11
2 6 12
2 6 13
2 7 14
2 7 15
2 8 16
2 8 17
2 9 18
2 9 19
2 10 20
2 10 21
2 11 22
2 11 23
2 12 24
2 12 25
2 13 26
2 13 27
2 14 28
2 14 29
2 15 30
2 15 31
2 16 32
2 16 33
2 17 34
2 17 35
2 18 36
2 18 37
2 19 38
2 19 39
2 20 40
2 20 41
2 21 42
2 21 43
2 22 44
2 22 45
2 23 46
2 23 47
2 24 48
2 24 49
2 25 50
2 25 51
2 26 52
2 26 53
2 27 54
2 27 55
2 28 56
2 28 57
2 29 58
2 29 59
2 30 60
2 30 61
2 31 62
2 31 63
2 32 64
2 32 65
2 33 66
2 33 67
2 34 68
2 34 69
2 35 70
2 35 71
2 36 72
2 36 73
2 37 74
2 37 75
2 38 76
2 38 77
2 39 78
2 39 79
2 40 80
2 40 81
2 41 82
2 41 83
2 42 84
2 42 85
2 43 86
2 43 87
2 44 88
2 44 89
2 45 90
2 45 91
2 46 92
2 46 93
2 47 94
2 47 95
2 48 96
2 48 97
2 49 98
2 49 99
2 50 100
2 50 101
2 51 102
2 51 103
2 52 104
2 52 105
2 53 106
2 53 107
2 54 108
2 54 109
2 55 110
2 55 111
2 56 112
2 56 113
2 57 114
2 57 115
2 58 116
2 58 117
2 59 118
2 59 119
2 60 120
2 60 121
2 61 122
2 61 123
2 62 124
2 62 125
2 63 126
2 63 127
CELL_DATA 127
SCALARS diameter float
LOOKUP_TABLE default
1
0.9
0.9
0.81
0.81
0.81
0.81
0.729
0.729
0.729
0.729
0.729
0.729
0.729
0.729
0.6561
0.6561
0.6561
0.6561
0.6561
0.6561
0.6561
0.6561
0.6561
0.6561
0.6561
0.6561
0.6561
0.6561
0.6561
0.6561
0.59049
0.59049
0.59049
0.59049
0.59049
0.59049
0.59049
0.59049
0.59049
0.59049
0.59049
0.59049
0.59049
0.59049
0.59049
0.59049
0.59049
0.59049
0.59049
0.59049
0.59049
0.59049
0.59049
0.59049
0.59049
0.59049
0.59049
0.59049
0.59049
0.59049
0.59049
0.59049
0.531441
0.531441
0.531441
0.531441
0.531441
0.531441
0.531441
0.531441
0.531441
0.531441
0.531441
0.531441
0.531441
0.531441
0.531441
0.531441
0.531441
0.531441
0.531441
0.531441
0.531441
0.531441
0.531441
0.531441
0.531441
0.531441
0.531441
0.531441
0.531441
0.531441
0.531441
0.531441
0.531441
0.531441
0.531441
0.531441
0.531441
0.531441
0.531441
0.531441
0.531441
0.531441
0.531441
0.531441
0.531441
0.531441
0.531441
0.531441
0.531441
0.531441
0.531441
0.531441
0.531441
0.531441
0.531441
0.531441
0.531441
0.531441
0.531441
0.531441
0.531441
0.531441
0.531441
0.531441
