# vtk DataFile Version 3.0
Tree
ASCII
DATASET POLYDATA
POINTS 128 float
0 0.0287941 0
-0.0126607 -0.0251748 0
0.00423547 0.00213237 0
0.0259787 -0.0201673 0
-0.00208886 0.02004 0
-0.0230888 0.017684 0
-0.000626657 0.0261679 0
0.0234609 0.0278788 0
-0.0113544 0.0154728 0
-0.0277715 -0.00803917 0
0.00440476 0.0102646 0
0.0248694 0.00521801 0
0.000584411 -0.0118647 0
0.00567841 -0.024451 0
-0.0213202 -0.0047847 0
-0.018803 -0.0165692 0
0.0163989 0.0241142 0
0.025768 0.016389 0
-0.0213376 -0.0122665 0
-0.0277377 -0.0287649 0
-0.000187997 0.0280062 0
-0.0109378 0.0282299 0
0.00143954 -0.00384173 0
-0.00660784 -0.00554711 0
-0.0170218 0.00741038 0
-0.0269212 0.00852779 0
0.0159869 -0.0152911 0
0.0151431 -0.0282376 0
0.014371 -0.00999766 0
0.0271084 -0.0110833 0
-0.013508 0.0124091 0
-0.00722621 0.00214039 0
0.0203776 0.00404537 0
0.0263683 -0.00329567 0
0.0117956 0.00856903 0
0.0172645 0.0137013 0
-0.0204826 0.0190241 0
-0.0271918 0.024997 0
0.0242807 0.0167011 0
0.028487 0.010882 0
0.0227695 -0.0205966 0
0.0287911 -0.0286667 0
-0.0043784 -0.00657035 0
-0.0101418 -0.0116378 0
0.00675429 0.0243065 0
0.00953057 0.0180069 0
-0.00509265 -0.0216583 0
-0.00378697 -0.0259925 0
-0.02276 -0.0217607 0
-0.0191033 -0.0273189 0
-0.0206155 7.34199e-05 0
-0.0270325 -0.000571521 0
0.0113355 -0.00483929 0
0.0180277 -0.0034772 0
0.000840949 -0.0094578 0
0.00760505 -0.0139596 0
-0.0243443 0.0201667 0
-0.0285237 0.0179851 0
-0.0226881 -0.015204 0
-0.0282408 -0.0149384 0
-0.0208269 -0.00138402 0
-0.0148962 -0.00497277 0
0.00245667 0.0131973 0
-0.00190827 0.00677609 0
-0.00399943 -0.0176114 0
-0.0114766 -0.0172359 0
0.00855223 -0.00107001 0
0.0132622 0.000671196 0
0.00581067 -0.0186696 0
0.0095106 -0.0193764 0
-0.00560977 0.0183045 0
-0.00983804 0.0219098 0
-0.0216729 0.0201879 0
-0.0215373 0.0251335 0
0.0176163 0.00639025 0
0.0221089 0.00948534 0
-0.0102381 0.0282007 0
-0.0176531 0.0283175 0
-0.0204743 -0.00887842 0
-0.0152242 -0.0110457 0
0.0205302 0.0213921 0
0.026204 0.0232034 0
-0.00771607 -0.0244264 0
-0.00797511 -0.0285304 0
0.0170112 -0.024156 0
0.0208507 -0.0284566 0
-0.0173585 0.0169539 0
-0.0209878 0.0131155 0
-0.0186749 0.00403538 0
-0.0135544 -0.00121041 0
-0.0131326 0.0269379 0
-0.0142197 0.0235904 0
0.0158999 -0.0220879 0
0.0110487 -0.0264806 0
-0.0234145 -0.0175938 0
-0.027738 -0.0196292 0
-0.0242123 0.00685917 0
-0.0285602 0.00384548 0
0.00227831 -0.0020495 0
0.00632205 -0.00660255 0
0.0120475 0.0232967 0
0.0149406 0.0176844 0
0.0239215 -0.0127454 0
0.0258893 -0.0155836 0
0.0188426 -0.0105564 0
0.0224349 -0.00711897 0
-0.026774 0.0177974 0
-0.0282454 0.0141984 0
-0.0037439 -0.0239056 0
0.0012771 -0.0268746 0
0.0217366 -0.00854664 0
0.0284803 -0.00675891 0
-0.00779273 0.0172284 0
-0.00697991 0.0127395 0
0.0021781 0.0254606 0
0.00315772 0.0211699 0
0.0030411 0.0123175 0
0.00669114 0.0147526 0
0.00285427 -0.0159328 0
0.000745614 -0.020022 0
0.00432689 0.0065238 0
0.00919578 0.00479841 0
-0.00553078 0.0275931 0
-0.00748248 0.0244581 0
-0.0223888 -0.0199538 0
-0.0180983 -0.0216528 0
0.00787918 0.0101093 0
0.0107449 0.0133937 0
LINES 127 381
2 82 1
2 120 2
2 40 3
2 6 4
2 36 5
2 20 6
2 16 7
2 112 8
2 14 9
2 116 10
2 32 11
2 54 12
2 68 13
2 60 14
2 18 15
2 100 16
2 38 17
2 78 18
2 48 19
2 0 20
2 76 21
2 98 22
2 42 23
2 30 24
2 96 25
2 28 26
2 84 27
2 52 28
2 102 29
2 8 30
2 30 31
2 74 32
2 32 33
2 126 34
2 34 35
2 86 36
2 56 37
2 80 38
2 38 39
2 26 40
2 40 41
2 22 42
2 42 43
2 114 44
2 44 45
2 64 46
2 108 47
2 124 48
2 48 49
2 88 50
2 50 51
2 66 52
2 52 53
2 22 54
2 54 55
2 72 56
2 106 57
2 18 58
2 58 59
2 50 60
2 60 61
2 4 62
2 62 63
2 12 64
2 64 65
2 2 66
2 66 67
2 118 68
2 68 69
2 4 70
2 70 71
2 36 72
2 72 73
2 34 74
2 74 75
2 122 76
2 90 77
2 14 78
2 78 79
2 16 80
2 80 81
2 46 82
2 82 83
2 92 84
2 84 85
2 8 86
2 86 87
2 24 88
2 88 89
2 76 90
2 90 91
2 26 92
2 92 93
2 58 94
2 94 95
2 24 96
2 96 97
2 2 98
2 98 99
2 44 100
2 100 101
2 104 102
2 102 103
2 28 104
2 110 105
2 56 106
2 106 107
2 46 108
2 108 109
2 104 110
2 110 111
2 70 112
2 112 113
2 6 114
2 114 115
2 62 116
2 116 117
2 12 118
2 118 119
2 10 120
2 120 121
2 20 122
2 122 123
2 94 124
2 124 125
2 10 126
2 126 127
CELL_DATA 127
SCALARS radius float
LOOKUP_TABLE default
0.344319
0.87036
0.28823
1.09689
0.222022
1.13323
0.273833
0.79395
0.282779
0.919781
0.281396
0.630439
0.329039
0.643701
0.282638
0.464585
0.24004
0.605871
0.391597
1.14711
0.15673
0.681189
0.235531
0.713719
0.255533
0.573126
0.321485
0.668402
0.309073
0.727248
0.276196
0.392205
0.336341
0.460619
0.262071
0.46732
0.291073
0.387432
0.353899
0.430922
0.382756
0.352504
0.313243
0.503337
0.23423
0.518394
0.27146
0.478586
0.367337
0.672861
0.262404
0.681264
0.259979
0.648147
0.278975
0.418021
0.258156
0.584633
0.30479
0.659286
0.270741
0.92845
0.237371
0.552573
0.308678
0.690196
0.232703
0.394622
0.2956
0.803842
0.215395
0.44998
0.262398
0.430402
0.268698
0.356621
0.28454
0.624971
0.278938
0.430424
0.278441
0.423712
0.32788
0.418529
0.34224
0.487472
0.239747
0.68573
0.261173
0.346231
0.264323
0.476569
0.326874
0.555602
0.306806
0.345152
0.290172
0.691413
0.243556
0.485827
0.243249
0.387483
0.306003
0.479663
0.234769
0.364393
0.314746
0.39841
0.350979
0.373685
0.339821
0.798654
0.207603
0.513712
0.200409
0.923249
0.206736
0.434182
0.273222
0.875111
0.22142
0.378274
0.206247
0.522483
0.320798
0.476155
0.217053
