# vtk DataFile Version 3.0
Tree
ASCII
DATASET POLYDATA
POINTS 28 float
0 0.0287941 0
-0.0126607 -0.0251748 0
0.00423547 0.00213237 0
0.0259787 -0.0201673 0
-0.00208886 0.02004 0
-0.0230888 0.017684 0
-0.000626657 0.0261679 0
0.0234609 0.0278788 0
-0.0113544 0.0154728 0
-0.0277715 -0.00803917 0
0.00440476 0.0102646 0
0.0248694 0.00521801 0
0.000584411 -0.0118647 0
0.00567841 -0.024451 0
-0.0213202 -0.0047847 0
-0.018803 -0.0165692 0
0.0163989 0.0241142 0
0.025768 0.016389 0
-0.0213376 -0.0122665 0
-0.0277377 -0.0287649 0
-0.000187997 0.0280062 0
-0.0109378 0.0282299 0
0.00143954 -0.00384173 0
-0.00660784 -0.00554711 0
-0.0170218 0.00741038 0
-0.0269212 0.00852779 0
0.0159869 -0.0152911 0
0.0151431 -0.0282376 0
LINES 27 81
2 12 1
2 10 2
2 26 3
2 6 4
2 8 5
2 20 6
2 16 7
2 4 8
2 14 9
2 4 10
2 10 11
2 22 12
2 12 13
2 24 14
2 18 15
2 6 16
2 16 17
2 14 18
2 18 19
2 0 20
2 20 21
2 2 22
2 22 23
2 8 24
2 24 25
2 2 26
2 26 27
CELL_DATA 27
SCALARS radius float
LOOKUP_TABLE default
0.532704
0.845586
0.503874
1.06381
0.397947
1.11031
0.411433
0.796338
0.428118
0.887443
0.455171
0.646096
0.491232
0.720482
0.435305
0.54833
0.456639
0.666092
0.597251
1.12231
0.355281
0.693164
0.398626
0.76173
0.408132
0.647572
0.5237
