# vtk DataFile Version 3.0
Tree
ASCII
DATASET POLYDATA
POINTS 6 float
0 0.0287941 0
-0.0126607 -0.0251748 0
0.00423547 0.00213237 0
0.0259787 -0.0201673 0
-0.00208886 0.02004 0
-0.0230888 0.017684 0
LINES 5 15
2 2 1
2 4 2
2 2 3
2 0 4
2 4 5
CELL_DATA 5
SCALARS radius float
LOOKUP_TABLE default
0.78423
0.984323
0.778263
1.06759
0.64076
