# vtk DataFile Version 3.0
Tree
ASCII
DATASET POLYDATA
POINTS 62 float
0 0.0287941 0
-0.0126607 -0.0251748 0
0.00423547 0.00213237 0
0.0259787 -0.0201673 0
-0.00208886 0.02004 0
-0.0230888 0.017684 0
-0.000626657 0.0261679 0
0.0234609 0.0278788 0
-0.0113544 0.0154728 0
-0.0277715 -0.00803917 0
0.00440476 0.0102646 0
0.0248694 0.00521801 0
0.000584411 -0.0118647 0
0.00567841 -0.024451 0
-0.0213202 -0.0047847 0
-0.018803 -0.0165692 0
0.0163989 0.0241142 0
0.025768 0.016389 0
-0.0213376 -0.0122665 0
-0.0277377 -0.0287649 0
-0.000187997 0.0280062 0
-0.0109378 0.0282299 0
0.00143954 -0.00384173 0
-0.00660784 -0.00554711 0
-0.0170218 0.00741038 0
-0.0269212 0.00852779 0
0.0159869 -0.0152911 0
0.0151431 -0.0282376 0
0.014371 -0.00999766 0
0.0271084 -0.0110833 0
-0.013508 0.0124091 0
-0.00722621 0.00214039 0
0.0203776 0.00404537 0
0.0263683 -0.00329567 0
0.0117956 0.00856903 0
0.0172645 0.0137013 0
-0.0204826 0.0190241 0
-0.0271918 0.024997 0
0.0242807 0.0167011 0
0.028487 0.010882 0
0.0227695 -0.0205966 0
0.0287911 -0.0286667 0
-0.0043784 -0.00657035 0
-0.0101418 -0.0116378 0
0.00675429 0.0243065 0
0.00953057 0.0180069 0
-0.00509265 -0.0216583 0
-0.00378697 -0.0259925 0
-0.02276 -0.0217607 0
-0.0191033 -0.0273189 0
-0.0206155 7.34199e-05 0
-0.0270325 -0.000571521 0
0.0113355 -0.00483929 0
0.0180277 -0.0034772 0
0.000840949 -0.0094578 0
0.00760505 -0.0139596 0
-0.0243443 0.0201667 0
-0.0285237 0.0179851 0
-0.0226881 -0.015204 0
-0.0282408 -0.0149384 0
-0.0208269 -0.00138402 0
-0.0148962 -0.00497277 0
LINES 61 183
2 46 1
2 10 2
2 40 3
2 6 4
2 36 5
2 20 6
2 16 7
2 4 8
2 14 9
2 4 10
2 32 11
2 54 12
2 12 13
2 60 14
2 18 15
2 44 16
2 38 17
2 14 18
2 48 19
2 0 20
2 20 21
2 2 22
2 42 23
2 30 24
2 24 25
2 28 26
2 26 27
2 52 28
2 28 29
2 8 30
2 30 31
2 34 32
2 32 33
2 10 34
2 34 35
2 8 36
2 56 37
2 16 38
2 38 39
2 26 40
2 40 41
2 22 42
2 42 43
2 6 44
2 44 45
2 12 46
2 46 47
2 58 48
2 48 49
2 24 50
2 50 51
2 2 52
2 52 53
2 22 54
2 54 55
2 36 56
2 56 57
2 18 58
2 58 59
2 50 60
2 60 61
CELL_DATA 61
SCALARS radius float
LOOKUP_TABLE default
0.438292
0.853888
0.35136
1.0985
0.273021
1.14042
0.328372
0.829214
0.342691
0.910738
0.335187
0.584886
0.397215
0.684675
0.342925
0.513526
0.28759
0.654772
0.470137
1.14671
0.291185
0.681894
0.285059
0.751249
0.330085
0.600261
0.414713
0.649904
0.38758
0.772241
0.331847
0.467178
0.400636
0.510211
0.313636
0.47861
0.36226
0.46418
0.424005
0.525307
0.466591
0.426631
0.379114
0.540161
0.280982
0.51603
0.376139
0.574573
0.441011
0.729377
0.317193
0.673516
0.314204
0.620941
0.340076
0.446947
0.346891
0.621783
0.370125
0.708806
0.327564
