# vtk DataFile Version 3.0
Tree
ASCII
DATASET POLYDATA
POINTS 18 float
0 0.0287941 0
-0.0126607 -0.0251748 0
0.00423547 0.00213237 0
0.0259787 -0.0201673 0
-0.00208886 0.02004 0
-0.0230888 0.017684 0
-0.000626657 0.0261679 0
0.0234609 0.0278788 0
-0.0113544 0.0154728 0
-0.0277715 -0.00803917 0
0.00440476 0.0102646 0
0.0248694 0.00521801 0
0.000584411 -0.0118647 0
0.00567841 -0.024451 0
-0.0213202 -0.0047847 0
-0.018803 -0.0165692 0
0.0163989 0.0241142 0
0.025768 0.016389 0
LINES 17 51
2 12 1
2 10 2
2 2 3
2 6 4
2 8 5
2 0 6
2 16 7
2 4 8
2 14 9
2 4 10
2 10 11
2 2 12
2 12 13
2 8 14
2 14 15
2 6 16
2 16 17
CELL_DATA 17
SCALARS radius float
LOOKUP_TABLE default
0.592916
0.831763
0.588243
1.0448
0.450215
1.11079
0.459749
0.756112
0.517016
0.891373
0.510189
0.719125
0.546756
0.698649
0.587535
0.612722
0.510263
