# vtk DataFile Version 3.0
Tree
ASCII
DATASET POLYDATA
POINTS 46 float
0 0.0287941 0
-0.0126607 -0.0251748 0
0.00423547 0.00213237 0
0.0259787 -0.0201673 0
-0.00208886 0.02004 0
-0.0230888 0.017684 0
-0.000626657 0.0261679 0
0.0234609 0.0278788 0
-0.0113544 0.0154728 0
-0.0277715 -0.00803917 0
0.00440476 0.0102646 0
0.0248694 0.00521801 0
0.000584411 -0.0118647 0
0.00567841 -0.024451 0
-0.0213202 -0.0047847 0
-0.018803 -0.0165692 0
0.0163989 0.0241142 0
0.025768 0.016389 0
-0.0213376 -0.0122665 0
-0.0277377 -0.0287649 0
-0.000187997 0.0280062 0
-0.0109378 0.0282299 0
0.00143954 -0.00384173 0
-0.00660784 -0.00554711 0
-0.0170218 0.00741038 0
-0.0269212 0.00852779 0
0.0159869 -0.0152911 0
0.0151431 -0.0282376 0
0.014371 -0.00999766 0
0.0271084 -0.0110833 0
-0.013508 0.0124091 0
-0.00722621 0.00214039 0
0.0203776 0.00404537 0
0.0263683 -0.00329567 0
0.0117956 0.00856903 0
0.0172645 0.0137013 0
-0.0204826 0.0190241 0
-0.0271918 0.024997 0
0.0242807 0.0167011 0
0.028487 0.010882 0
0.0227695 -0.0205966 0
0.0287911 -0.0286667 0
-0.0043784 -0.00657035 0
-0.0101418 -0.0116378 0
0.00675429 0.0243065 0
0.00953057 0.0180069 0
LINES 45 135
2 12 1
2 10 2
2 40 3
2 6 4
2 36 5
2 20 6
2 16 7
2 4 8
2 14 9
2 4 10
2 32 11
2 22 12
2 12 13
2 24 14
2 18 15
2 44 16
2 38 17
2 14 18
2 18 19
2 0 20
2 20 21
2 2 22
2 42 23
2 30 24
2 24 25
2 28 26
2 26 27
2 2 28
2 28 29
2 8 30
2 30 31
2 34 32
2 32 33
2 10 34
2 34 35
2 8 36
2 36 37
2 16 38
2 38 39
2 26 40
2 40 41
2 22 42
2 42 43
2 6 44
2 44 45
CELL_DATA 45
SCALARS radius float
LOOKUP_TABLE default
0.466879
0.852167
0.376833
1.07204
0.306043
1.12646
0.35393
0.764239
0.378036
0.922749
0.361673
0.566259
0.430532
0.636199
0.384382
0.553495
0.309974
0.588171
0.527383
1.13452
0.313778
0.654365
0.308706
0.672622
0.360388
0.643779
0.444778
0.697021
0.415679
0.705597
0.360847
0.504094
0.432293
0.550527
0.338419
0.456401
0.404947
0.500308
0.457006
0.563391
0.500418
0.462021
0.410563
0.582203
0.302852
