# vtk DataFile Version 3.0
Tree
ASCII
DATASET POLYDATA
POINTS 20 float
0 0.0287941 0
-0.0126607 -0.0251748 0
0.00423547 0.00213237 0
0.0259787 -0.0201673 0
-0.00208886 0.02004 0
-0.0230888 0.017684 0
-0.000626657 0.0261679 0
0.0234609 0.0278788 0
-0.0113544 0.0154728 0
-0.0277715 -0.00803917 0
0.00440476 0.0102646 0
0.0248694 0.00521801 0
0.000584411 -0.0118647 0
0.00567841 -0.024451 0
-0.0213202 -0.0047847 0
-0.018803 -0.0165692 0
0.0163989 0.0241142 0
0.025768 0.016389 0
-0.0213376 -0.0122665 0
-0.0277377 -0.0287649 0
LINES 19 57
2 12 1
2 10 2
2 2 3
2 6 4
2 8 5
2 0 6
2 16 7
2 4 8
2 14 9
2 4 10
2 10 11
2 2 12
2 12 13
2 8 14
2 18 15
2 6 16
2 16 17
2 14 18
2 18 19
CELL_DATA 19
SCALARS radius float
LOOKUP_TABLE default
0.576608
0.808885
0.572064
1.06449
0.432801
1.1236
0.447608
0.821711
0.463225
0.866856
0.496156
0.699345
0.531718
0.779564
0.471001
0.596541
0.496788
0.720713
0.646227
