# vtk DataFile Version 4.1
vtk output
ASCII
DATASET POLYDATA
POINTS 80 float
0.057694 0.051444 0.016943 0.054193 0.061443 0.016943 0.056444 0.057694 0.025944 
0.057194 0.056444 0.025944 0.057194 0.053443 0.026693 0.052693 0.065194 0.019443 
0.049194 0.063944 0.011694 0.049194 0.062193 0.009443 0.055693 0.058194 0.027693 
0.049194 0.064194 0.010443 0.049694 0.066944 0.014944 0.048194 0.063944 0.009943 
0.049194 0.064194 0.008443 0.046193 0.067694 0.011694 0.047443 0.066694 0.009443 
0.045693 0.068444 0.011694 0.045443 0.070444 0.011943 0.051694 0.071194 0.024693 
0.050694 0.072693 0.024943 0.044193 0.075693 0.018693 0.041944 0.075193 0.011694 
0.050694 0.071943 0.029944 0.041194 0.076443 0.017693 0.050694 0.072693 0.030194 
0.037943 0.075693 0.015194 0.038443 0.076943 0.015943 0.038443 0.076943 0.017193 
0.040444 0.078193 0.017943 0.039193 0.078443 0.017693 0.042194 0.079944 0.021443 
0.037943 0.078943 0.017943 0.043444 0.079694 0.025694 0.038443 0.080694 0.020693 
0.044193 0.079944 0.026194 0.039193 0.082194 0.021193 0.031193 0.080194 0.018693 
0.035944 0.083194 0.021443 0.041694 0.080444 0.029944 0.041194 0.077193 0.032694 
0.036443 0.083444 0.023693 0.034194 0.082944 0.020693 0.031943 0.082944 0.020193 
0.035694 0.082944 0.027443 0.035694 0.082444 0.027943 0.036443 0.079194 0.031943 
0.018693 0.074193 0.017193 0.026693 0.081444 0.019693 0.028944 0.082694 0.021193 
0.035194 0.073943 0.036194 0.031193 0.070444 0.036443 0.031443 0.078443 0.031693 
0.027193 0.073443 0.033194 0.021943 0.068944 0.032193 0.029944 0.073193 0.034944 
0.029944 0.072693 0.034944 0.023193 0.080444 0.021443 0.016443 0.073943 0.020193 
0.026693 0.077443 0.030693 0.015444 0.072443 0.018943 0.031193 0.079194 0.031443 
0.024943 0.073693 0.032193 0.028694 0.071693 0.035694 0.029944 0.072693 0.035694 
0.020693 0.079444 0.021193 0.023693 0.081444 0.022193 0.023443 0.080944 0.021443 
0.015943 0.074193 0.020443 0.021443 0.074193 0.029944 0.011943 0.068444 0.020943 
0.024443 0.074943 0.031943 0.024693 0.074443 0.032193 0.019693 0.078193 0.024193 
0.015693 0.074443 0.021193 0.019193 0.075443 0.026693 0.013943 0.072193 0.020943 
0.013444 0.071693 0.021443 0.019193 0.072193 0.029694 0.013694 0.069694 0.024193 
0.018193 0.071693 0.029194 0.012443 0.064194 0.027443 

VERTICES 80 160
1 0 
1 1 
1 2 
1 3 
1 4 
1 5 
1 6 
1 7 
1 8 
1 9 
1 10 
1 11 
1 12 
1 13 
1 14 
1 15 
1 16 
1 17 
1 18 
1 19 
1 20 
1 21 
1 22 
1 23 
1 24 
1 25 
1 26 
1 27 
1 28 
1 29 
1 30 
1 31 
1 32 
1 33 
1 34 
1 35 
1 36 
1 37 
1 38 
1 39 
1 40 
1 41 
1 42 
1 43 
1 44 
1 45 
1 46 
1 47 
1 48 
1 49 
1 50 
1 51 
1 52 
1 53 
1 54 
1 55 
1 56 
1 57 
1 58 
1 59 
1 60 
1 61 
1 62 
1 63 
1 64 
1 65 
1 66 
1 67 
1 68 
1 69 
1 70 
1 71 
1 72 
1 73 
1 74 
1 75 
1 76 
1 77 
1 78 
1 79 

POINT_DATA 80
FIELD FieldData 2
LAT 1 80 float
18.5778 24.5265 27.331 26.3801 26.6176 28.5736 38.0322 40.3589 29.3821 
38.4258 29.3678 38.8563 40.1255 41.4067 40.237 42.0854 42.6973 33.2226 
34.079 38.9252 39.7174 44.4074 40.0475 44.0906 41.0024 42.0074 41.8674 
41.217 42.6047 41.0629 43.5742 41.3951 42.8951 40.9525 43.7664 50.8132 
45.6965 43.0793 44.7745 43.8501 45.6312 49.224 45.9984 45.9222 46.8638 
66.6784 51.2736 48.435 48.3268 58.2895 49.6668 56.4561 60.5152 56.068 
59.7233 52.6654 63.5905 53.1681 63.9906 49.7576 56.2508 57.379 59.5479 
56.1005 51.1349 52.7433 63.5314 56.8612 67.2466 57.036 56.2865 54.1335 
63.2902 57.6978 65.9861 64.4389 59.329 65.0075 59.434 65.2312 
METADATA
INFORMATION 0

Active 1 80 float
1 1 1 1 1 1 1 1 1 
1 1 1 1 1 1 1 1 1 
1 1 1 1 1 1 1 1 1 
1 1 1 1 1 1 1 1 1 
1 1 1 1 1 1 1 1 1 
1 1 1 1 1 1 1 1 1 
1 1 1 1 1 1 1 1 1 
1 1 1 1 1 1 1 1 1 
1 1 1 1 1 1 1 1 
METADATA
INFORMATION 0

