# vtk DataFile Version 4.1
vtk output
ASCII
DATASET POLYDATA
POINTS 6 float
0.0556935 0.0524435 0.0126935 0.0551935 0.0539435 0.0126935 0.0549435 0.0549435 0.0126935 
0.0546935 0.0556935 0.0124435 0.0544435 0.0559435 0.0124435 0.0541935 0.0566935 0.0121935 

VERTICES 6 12
1 0 
1 1 
1 2 
1 3 
1 4 
1 5 

POINT_DATA 6
FIELD FieldData 2
LAT 1 6 float
39 40 39 35.5 35.5 31.5 
METADATA
INFORMATION 0

Active 1 6 float
0 0 0 0 0 0 
METADATA
INFORMATION 0

